# ODT 1.0
# Table Start
# Title: mmArchive Data Table, Thu Jan 04 18:17:39 EST 2024
# Columns: {Oxs_CGEvolve:evolver:Max mxHxm} {Oxs_CGEvolve:evolver:Total energy} {Oxs_CGEvolve:evolver:Delta E} {Oxs_CGEvolve:evolver:Bracket count} {Oxs_CGEvolve:evolver:Line min count} {Oxs_CGEvolve:evolver:Conjugate cycle count} {Oxs_CGEvolve:evolver:Cycle count} {Oxs_CGEvolve:evolver:Cycle sub count} {Oxs_CGEvolve:evolver:Energy calc count} Oxs_UniformExchange:exchange:Energy {Oxs_UniformExchange:exchange:Max Spin Ang} {Oxs_UniformExchange:exchange:Stage Max Spin Ang} {Oxs_UniformExchange:exchange:Run Max Spin Ang} Oxs_DMI_T:dmi:Energy Oxs_FixedZeeman:zeeman:Energy Oxs_MinDriver::Iteration {Oxs_MinDriver::Stage iteration} Oxs_MinDriver::Stage Oxs_MinDriver::mx    Oxs_MinDriver::my    Oxs_MinDriver::mz   
# Units:                 A/m                                 J                                J                                 {}                                   {}                                        {}                                      {}                                   {}                                      {}                                     J                                      deg                                            deg                                              deg                                J                         J                          {}                           {}                         {}                 {}                   {}                   {}           
                  0.088671405281799995              -2.00890234645e-15                -4.7331654313300001e-30               63                                   6                                         53                                      58                                   5                                       70                                    1.5816062978899999e-21                     25.518513248600001                             179.78561976399999                               179.78561976399999                -3.8062226428e-17        -1.97084170163e-15           66                           66                         0                    1.3865245590799999e-10 -1.86954242544e-10    0.99011742066399999
# Table End
