# ODT 1.0
# Table Start
# Title: mmArchive Data Table, Mon Jan 29 07:14:27 EST 2024
# Columns: {Oxs_CGEvolve:evolver:Max mxHxm} {Oxs_CGEvolve:evolver:Total energy} {Oxs_CGEvolve:evolver:Delta E} {Oxs_CGEvolve:evolver:Bracket count} {Oxs_CGEvolve:evolver:Line min count} {Oxs_CGEvolve:evolver:Conjugate cycle count} {Oxs_CGEvolve:evolver:Cycle count} {Oxs_CGEvolve:evolver:Cycle sub count} {Oxs_CGEvolve:evolver:Energy calc count} Oxs_Exchange6Ngbr:exchange:Energy {Oxs_Exchange6Ngbr:exchange:Max Spin Ang} {Oxs_Exchange6Ngbr:exchange:Stage Max Spin Ang} {Oxs_Exchange6Ngbr:exchange:Run Max Spin Ang} Oxs_UniaxialAnisotropy:uniaxialanisotropy:Energy Oxs_MinDriver::Iteration {Oxs_MinDriver::Stage iteration} Oxs_MinDriver::Stage Oxs_MinDriver::mx    Oxs_MinDriver::my    Oxs_MinDriver::mz   
# Units:                 A/m                                 J                                J                                 {}                                   {}                                        {}                                      {}                                   {}                                      {}                                    J                                    deg                                          deg                                            deg                                             J                                    {}                           {}                         {}                 {}                   {}                   {}           
                  0.0112847944309                   4.56276118677e-32                -3.5455524589599999e-29               16                                   3                                         11                                      13                                   2                                       20                                   0                                     0                                            0                                              0                                               4.56276118677e-32                    19                           19                         0                   -0.074997447312599996 -0.076757153644500004  0.54379716729799998
# Table End
