# OOMMF OVF 2.0
#
# Segment count: 1
#
# Begin: Segment
# Begin: Header
#
# Title: Field
# Desc: File generated by Field class
# meshunit: (m)$^{-1}$
# meshtype: rectangular
# xbase: -999999999.9999999
# ybase: -999999999.9999999
# zbase: -999999999.9999998
# xnodes: 42
# ynodes: 42
# znodes: 2
# xstepsize: 47619047.61904761
# ystepsize: 47619047.61904761
# zstepsize: 999999999.9999999
# xmin: -1023809523.8095237
# ymin: -1023809523.8095237
# zmin: -1499999999.9999998
# xmax: 976190476.1904761
# ymax: 976190476.1904761
# zmax: 499999999.99999994
# valuedim: 1
# valuelabels: field_x
# valueunits: None
#
# End: Header
#
# Begin: Data Text
 3.5948825638048e-15
 3.7183459306310134e-14
 1.2858152761732288e-11
 1.8380774283194777e-13
 8.054774554937033e-13
 2.776051535656707e-13
 1.4747029628216277e-12
 6.668383088783129e-13
 2.4853399174751406e-13
 2.278106123075983e-12
 1.0001520529843452e-12
 1.5614367341758155e-14
 2.4742922936146623e-13
 3.769455579084751e-13
 5.938294915512882e-13
 8.947644252485371e-14
 4.818002426471974e-12
 1.5870791829649267e-13
 2.653602309563255e-13
 3.075500785139615e-12
 3.6133625352067404e-12
 3.5569355510714996e-14
 3.6133625354459758e-12
 3.075500775185033e-12
 2.65360218058218e-13
 1.5870792693565358e-13
 4.818002388697215e-12
 8.947645012783955e-14
 5.93829460402256e-13
 3.7694554356510673e-13
 2.474292364418326e-13
 1.5614368834788493e-14
 1.0001521122972383e-12
 2.278106133565595e-12
 2.4853410271854907e-13
 6.668382570180372e-13
 1.4747022644641408e-12
 2.7760525266785523e-13
 8.054770232086985e-13
 1.8380792261731868e-13
 1.285815325377522e-11
 3.7183462636351695e-14
 6.415298831382744e-13
 2.4725299577527185e-12
 2.626762663865679e-12
 1.4757947636709942e-12
 4.997537734935733e-13
 6.113022356204696e-13
 7.638143479614661e-13
 9.285278799231504e-14
 8.79831835386205e-14
 5.974840471261364e-13
 1.494125960129749e-13
 1.6716625030756946e-13
 9.411510246167898e-14
 2.4772468711273133e-14
 1.3159506692580242e-13
 7.074391342102726e-13
 1.842663448113034e-12
 6.560683138777228e-13
 1.4650113802817492e-13
 3.612263817708619e-12
 2.705720296365241e-12
 2.7260017112216883e-13
 2.705720307497587e-12
 3.6122636246476722e-12
 1.4650115751983383e-13
 6.560683271760029e-13
 1.84266350716519e-12
 7.074391418349266e-13
 1.3159502235722185e-13
 2.4772475956910364e-14
 9.411515538570236e-14
 1.671662541879816e-13
 1.4941255859023267e-13
 5.974841048044352e-13
 8.798286255431976e-14
 9.285276096272043e-14
 7.638144078253981e-13
 6.113021783502663e-13
 4.997546168658676e-13
 1.4757960382433074e-12
 2.626761190230727e-12
 2.472529646526532e-12
 1.0334785663575383e-12
 8.970432981399944e-12
 3.6735340973084997e-13
 4.578220997775221e-12
 5.233563865446215e-13
 1.2966881222070468e-12
 1.2791555672766777e-12
 3.0216257136660535e-12
 3.4707602413046707e-13
 5.536172862820943e-14
 1.3009751268396913e-13
 3.911752749028734e-13
 3.39758542074078e-13
 3.196368338953089e-13
 5.308262293971756e-13
 1.278382522225619e-12
 7.278925737485265e-14
 1.746794630834837e-12
 3.1093431025699556e-12
 1.0133973550335362e-12
 9.908565947405271e-13
 3.719720056041074e-12
 9.908565377678449e-13
 1.0133973901314213e-12
 3.109343102884633e-12
 1.7467947494187265e-12
 7.278921935855135e-14
 1.2783824522268545e-12
 5.30826308955587e-13
 3.1963677937294357e-13
 3.3975850030853746e-13
 3.9117534598222816e-13
 1.3009740106365166e-13
 5.5361755521589103e-14
 3.470762402779711e-13
 3.0216258644200873e-12
 1.279155230542568e-12
 1.2966884588439244e-12
 5.23355722257808e-13
 4.578219731563759e-12
 3.6735363996032597e-13
 8.970434046055795e-12
 1.3139404086586033e-11
 2.1258673502796733e-12
 1.6115438757854147e-12
 1.7065232037781134e-12
 3.88500390346664e-12
 1.610552752981788e-12
 4.238644903531768e-12
 4.362176383848374e-12
 1.8602412110038916e-12
 9.7300430279348e-13
 2.832784345999202e-13
 5.892782965556459e-13
 4.583001029542116e-13
 4.922776489287651e-14
 3.6014619346404833e-12
 1.298889952909211e-12
 1.054603371227225e-12
 1.6897629992400379e-12
 7.01201209925909e-12
 4.488542467706405e-14
 7.408094841577794e-13
 6.402544023122492e-12
 7.408095741000143e-13
 4.488547112446751e-14
 7.012011981597115e-12
 1.6897630357409158e-12
 1.054603423395321e-12
 1.2988899905897643e-12
 3.6014616159864265e-12
 4.922774715648117e-14
 4.583000754390335e-13
 5.892781432627706e-13
 2.832784181263482e-13
 9.730041925739396e-13
 1.8602419711498286e-12
 4.362177657525488e-12
 4.2386449872783655e-12
 1.610552310154348e-12
 3.885003275888562e-12
 1.7065236958998341e-12
 1.611543547110228e-12
 2.1258666250581036e-12
 1.927374217298533e-16
 6.65233998383366e-13
 4.976648575998001e-13
 4.425664370033332e-13
 1.3176184573890084e-12
 4.552958166634295e-13
 2.4092011609207795e-12
 3.821383928322243e-13
 2.4062440235036387e-12
 1.0576219144097556e-12
 2.32933153392179e-12
 2.686784760050009e-13
 2.783966631439186e-13
 4.455652751365665e-13
 2.375437933585712e-13
 1.1061414035005589e-13
 2.4776029428850747e-13
 2.715950963026888e-12
 4.168577810102262e-12
 2.71671926205518e-13
 1.9417513995705174e-12
 6.175096660626366e-12
 1.941751310976809e-12
 2.716718603588691e-13
 4.168577909020171e-12
 2.7159509130448043e-12
 2.4776020368250334e-13
 1.1061419619103907e-13
 2.375438118839914e-13
 4.4556520344604483e-13
 2.7839660930006863e-13
 2.6867857727648173e-13
 2.32933167826187e-12
 1.057621784521749e-12
 2.406244054183103e-12
 3.8213874019575734e-13
 2.4092005237586598e-12
 4.552958184022475e-13
 1.3176184000202822e-12
 4.42566330940067e-13
 4.976647423708642e-13
 6.652331433079032e-13
 3.979980453337451e-13
 1.1135753807281536e-13
 2.8425098051780344e-12
 5.337090236103237e-13
 1.0146611506987183e-12
 7.39482767876558e-13
 3.5145310396287374e-13
 6.788770810843455e-13
 2.3014695464841795e-12
 4.903311909128164e-12
 4.753102081185737e-13
 1.6991293228252163e-14
 1.0854613281871423e-12
 2.0778963688370075e-13
 8.136620877799738e-13
 2.359404405384127e-14
 3.1982080861933766e-12
 3.300837367753737e-12
 1.1677024351840602e-12
 4.0957661742111284e-12
 2.0610802391426568e-12
 1.9527302287693154e-13
 2.0610801376786803e-12
 4.095766081754006e-12
 1.167702313397237e-12
 3.3008371893492276e-12
 3.1982082762174497e-12
 2.3594019268880153e-14
 8.136621302296526e-13
 2.0778961478793267e-13
 1.085461313928347e-12
 1.6991277830009833e-14
 4.753101109580374e-13
 4.903311964696131e-12
 2.3014691017483813e-12
 6.788771974745732e-13
 3.514530277964117e-13
 7.39483204083142e-13
 1.0146605052153147e-12
 5.337088050960883e-13
 2.84251065108114e-12
 1.1135767355941525e-13
 1.3715470559937024e-13
 2.307819906341389e-12
 1.326973506898417e-13
 1.7426222605406476e-12
 7.449616976773086e-13
 5.187182103907982e-12
 5.738463714887118e-15
 2.4997918008990216e-13
 2.1909568121144122e-12
 9.037677165372452e-12
 4.888046503661291e-13
 2.2845930698179706e-12
 3.9943440275614365e-13
 1.1081404751834427e-12
 9.27750255572836e-13
 1.0862534790222478e-12
 8.349382592782165e-12
 6.961249256438151e-13
 4.562636700108028e-13
 7.504933311390191e-12
 4.093548797413e-12
 4.177938618231585e-14
 4.0935486889051e-12
 7.504933779209612e-12
 4.562637842311773e-13
 6.961248871361826e-13
 8.349381706496945e-12
 1.0862533253549944e-12
 9.277502505552388e-13
 1.1081405380268927e-12
 3.9943443781282506e-13
 2.2845929341129944e-12
 4.888046195904429e-13
 9.037677565023546e-12
 2.190956708381323e-12
 2.499793995684448e-13
 5.738460654410332e-15
 5.1871823413336205e-12
 7.449622716670075e-13
 1.7426228563599835e-12
 1.3269730984287453e-13
 2.307819110568141e-12
 1.782038673461485e-13
 1.596542874633688e-12
 3.3079237707036543e-12
 1.0126035554607793e-13
 6.880556941544192e-13
 2.1690496796361734e-12
 2.982452387164436e-12
 2.7189268180724963e-13
 5.7727892600831544e-15
 7.687405166194043e-13
 2.483946507003765e-12
 9.764217017918523e-13
 2.001483248688641e-12
 2.330370952516462e-13
 8.985941394339089e-13
 1.9640961725933058e-12
 1.7635781221385922e-12
 1.523831136655581e-13
 2.3294949042663113e-13
 7.870683841042078e-12
 7.169725733685662e-12
 5.54336055877361e-14
 7.16972614659731e-12
 7.870683573174639e-12
 2.329494587944684e-13
 1.5238307186670026e-13
 1.7635782726506417e-12
 1.964095966828335e-12
 8.985941048637868e-13
 2.330371094533245e-13
 2.001483264596681e-12
 9.764216973442724e-13
 2.483946550654621e-12
 7.687403585153706e-13
 5.772774065951971e-15
 2.718927856859764e-13
 2.9824529239631095e-12
 2.1690502203315664e-12
 6.880560480239361e-13
 1.0126039212661817e-13
 3.307923490908976e-12
 1.5965424289567124e-12
 1.4454131384429856e-15
 3.4979485375153064e-13
 6.494580031463499e-13
 5.653775476326964e-15
 2.5668595210731264e-12
 3.167096639579072e-13
 3.542276313406598e-12
 9.07100628064002e-13
 2.733892664478895e-12
 8.057732464386208e-13
 3.4788873613627188e-12
 2.0560386828042312e-12
 1.8620177684747753e-12
 8.834220363383534e-13
 4.978047130744135e-12
 2.2157996229848932e-12
 2.3649205300526526e-13
 1.0820695301095942e-12
 5.8434440651092264e-12
 1.3752088799826843e-12
 3.4055997652678443e-12
 5.644327635180684e-12
 3.405599687644452e-12
 1.3752087200475665e-12
 5.843443835578064e-12
 1.0820697312533793e-12
 2.364921019709651e-13
 2.2157995515648012e-12
 4.9780471459826315e-12
 8.834218892814258e-13
 1.86201790136112e-12
 2.0560389256209525e-12
 3.4788875312043927e-12
 8.057730589206255e-13
 2.733892136191897e-12
 9.071007108299048e-13
 3.5422762658771312e-12
 3.1670965505979774e-13
 2.5668590474024203e-12
 5.653742846383723e-15
 6.494578513005464e-13
 3.4979468386788825e-13
 2.439861222527015e-13
 1.4387549743483725e-12
 3.995549429390733e-13
 3.0094558847440612e-12
 2.8103480035732563e-13
 3.990384462603726e-13
 6.511663564157572e-13
 1.276244919381745e-11
 4.164148291834659e-12
 2.0726131030827484e-12
 2.9104278011456578e-12
 9.065270313000391e-12
 6.510838330918823e-13
 5.421285243933023e-12
 4.10391625332272e-12
 1.3399922999504513e-12
 1.246953615539024e-12
 7.92187386431155e-12
 1.248949762253158e-11
 2.0872306693869082e-13
 5.815839387292197e-13
 1.7568546941530937e-11
 5.815840398490428e-13
 2.0872322200108343e-13
 1.2489497022413279e-11
 7.921873294438264e-12
 1.2469533957608185e-12
 1.3399924378833637e-12
 4.103916283256786e-12
 5.4212856775810335e-12
 6.510838259634025e-13
 9.065269942961755e-12
 2.9104275605785446e-12
 2.0726132584189234e-12
 4.1641486871845835e-12
 1.2762449050445408e-11
 6.511662956713929e-13
 3.99038513710719e-13
 2.810347414794745e-13
 3.0094566963604313e-12
 3.9955499527940127e-13
 1.4387545791943477e-12
 3.5877852256045225e-14
 1.6873200012915667e-13
 4.489754306065779e-13
 1.866466052728012e-13
 1.627170927832913e-12
 7.299446807783329e-14
 1.142732415282169e-13
 4.572308553711338e-12
 2.6760510887987773e-12
 2.0454498474642203e-12
 1.0375832915326428e-12
 5.094935766071837e-12
 4.867878637609177e-13
 1.7471159617386261e-12
 1.1893787818671093e-12
 3.5750621073687942e-12
 1.3039849413054942e-12
 6.1774275784845335e-12
 5.37765441268323e-12
 7.268484939335633e-13
 5.178507613180717e-12
 2.536798516636291e-11
 5.178507560261836e-12
 7.268482584689104e-13
 5.377655040879059e-12
 6.1774273430644286e-12
 1.3039848375482485e-12
 3.57506216652263e-12
 1.1893788940568033e-12
 1.7471158325573522e-12
 4.867877138708607e-13
 5.09493598792693e-12
 1.0375834032024296e-12
 2.0454501104024376e-12
 2.6760511065015636e-12
 4.5723084121763884e-12
 1.1427315113223696e-13
 7.29944036301897e-14
 1.62717079411607e-12
 1.8664656900342343e-13
 4.4897548033845473e-13
 1.6873191112997277e-13
 1.6831670309277335e-13
 6.743198675539663e-13
 1.1461230481557726e-13
 8.665176872701187e-14
 1.8047270734971323e-13
 1.5437231517813208e-13
 3.962287507028839e-13
 1.3246038750378652e-12
 3.3364983815366757e-12
 4.511230538102948e-12
 4.965264751729299e-12
 3.4636847474943637e-12
 3.719921922438075e-12
 2.431147518086521e-13
 2.9176253831742038e-12
 8.642668818500413e-12
 1.6585342970508673e-11
 9.99791304073028e-13
 1.0644729294411846e-14
 3.544437207065048e-12
 1.3251757757780367e-11
 4.714238317497741e-12
 1.3251757299691623e-11
 3.544437541469151e-12
 1.0644736320406759e-14
 9.997912448055859e-13
 1.658534243787642e-11
 8.642669207171454e-12
 2.9176259086742174e-12
 2.431148050480978e-13
 3.719921830072527e-12
 3.4636842697524568e-12
 4.965264343493229e-12
 4.51123091473996e-12
 3.336498467485425e-12
 1.324604010562439e-12
 3.962287338958482e-13
 1.5437233732684767e-13
 1.8047268287449346e-13
 8.665177874501759e-14
 1.146123169535815e-13
 6.743196878550825e-13
 2.486502662180424e-13
 4.568701824761397e-13
 3.791998763146899e-14
 1.9727587177858086e-13
 1.948823083132037e-13
 8.418395736360699e-13
 1.1037867657951366e-12
 6.59747800119109e-14
 3.646713243695217e-12
 5.3151755695868495e-12
 6.065025273485196e-12
 4.972811518474196e-12
 2.4715130098708415e-11
 2.9144690511147217e-12
 2.5719056548793067e-13
 9.280230544688954e-12
 3.840162809665844e-11
 8.376627835356006e-13
 7.499034481129028e-12
 3.83528317682738e-11
 9.420133198332295e-12
 2.3870730038528885e-12
 9.420131417998387e-12
 3.83528310556473e-11
 7.499033344479612e-12
 8.3766289923863e-13
 3.840163045645829e-11
 9.280230976957992e-12
 2.571904321426035e-13
 2.914468396964132e-12
 2.471513062159325e-11
 4.972812128233874e-12
 6.065025571515916e-12
 5.315175424872001e-12
 3.6467136233601875e-12
 6.597481300926631e-14
 1.103786777296991e-12
 8.418396138933721e-13
 1.948823080572491e-13
 1.9727590916907116e-13
 3.791997449567769e-14
 4.56870266764021e-13
 3.680971984644822e-14
 5.982368631366251e-13
 7.153767628846441e-14
 6.543820082280294e-14
 6.803161526817275e-14
 4.570477308373389e-13
 6.37493807258077e-13
 1.0296589939336982e-13
 1.2554701357770844e-13
 6.0780601199019725e-12
 7.525193018751381e-13
 1.8320371402852673e-12
 2.934806792097372e-12
 1.2710711743122338e-11
 5.514974560933924e-13
 1.3289669117670564e-12
 1.908833302855729e-12
 1.661258810200901e-11
 9.985278346567384e-12
 4.304191397643e-11
 9.233333521274685e-12
 1.4555611045267168e-12
 9.233334995165943e-12
 4.3041913674711884e-11
 9.985278378125647e-12
 1.661258789591787e-11
 1.908833055888141e-12
 1.3289664993062165e-12
 5.514976362451626e-13
 1.2710712619040244e-11
 2.9348064218282313e-12
 1.8320371347098987e-12
 7.525192224176518e-13
 6.078059928716994e-12
 1.2554699182095012e-13
 1.0296587857348483e-13
 6.374937825694475e-13
 4.570476254905125e-13
 6.803160425767552e-14
 6.543818753155998e-14
 7.153767340263952e-14
 5.98236861794829e-13
 4.034098684759331e-14
 8.971153414248419e-13
 4.02591952679012e-13
 2.1170353928461018e-13
 1.0916742072000833e-13
 6.449966194986804e-13
 1.1261498431755446e-12
 7.562367562267095e-13
 5.497806529124301e-13
 2.411507878666649e-12
 2.4767782663143377e-14
 7.90197512254972e-12
 2.710660916793556e-13
 9.586661140878438e-12
 2.0591534458091465e-12
 1.6038464342183762e-12
 3.4025342305261772e-12
 3.7073508816354696e-11
 4.490149587065649e-11
 6.218372437465222e-12
 4.512247839593109e-12
 4.868163851533351e-12
 4.5122483344510835e-12
 6.218371371682697e-12
 4.490149367908396e-11
 3.7073510795694194e-11
 3.402533882101613e-12
 1.6038459646845793e-12
 2.059153667355854e-12
 9.586661000868232e-12
 2.7106617414438075e-13
 7.901974560648306e-12
 2.4767790986130606e-14
 2.4115078674945497e-12
 5.497807899204583e-13
 7.562366572861415e-13
 1.126149810912606e-12
 6.449966927395567e-13
 1.0916734091126612e-13
 2.117035294953483e-13
 4.0259194749843384e-13
 8.971152143139763e-13
 5.015276369305348e-12
 1.3925425048322708e-13
 1.6143417385056873e-13
 1.6565802444119427e-12
 1.635224513263729e-13
 7.534641011742352e-14
 7.005723356347689e-13
 7.497152305728788e-13
 3.0435638305640043e-12
 9.153410338329365e-13
 1.760392209902983e-11
 2.135169778060772e-12
 9.663492677583163e-13
 7.485582884890043e-13
 6.051614460770678e-11
 8.806269533863768e-12
 7.965989750512335e-12
 3.5851417169209334e-11
 1.0440563285892166e-10
 5.635470003446229e-12
 4.6520655058332436e-11
 1.369587343740899e-10
 4.65206546079547e-11
 5.635471570198052e-12
 1.0440563260214638e-10
 3.585141439559648e-11
 7.965991184780955e-12
 8.80626998038444e-12
 6.051614476466318e-11
 7.48558365559936e-13
 9.663493196398483e-13
 2.1351697425761436e-12
 1.7603922356657402e-11
 9.153411043314245e-13
 3.0435637636097732e-12
 7.497151973322563e-13
 7.005723702325433e-13
 7.534640940273233e-14
 1.6352244975796028e-13
 1.656580271116401e-12
 1.6143418797314483e-13
 1.392543043180405e-13
 7.946233087225571e-13
 1.3014318733964059e-12
 2.3307155025766077e-13
 4.192582366145635e-13
 9.189471395316358e-13
 5.889735081419181e-14
 3.812590796027568e-13
 1.980510422004067e-12
 5.107540046175131e-13
 1.2342740833944157e-12
 4.537386465454545e-12
 1.0657759260822257e-11
 1.4393201904151524e-12
 2.5580749870642465e-12
 1.8314223634899142e-11
 1.2447904602033204e-11
 1.574564100153763e-11
 9.957005832918207e-12
 4.329441504044799e-11
 1.6301025553276088e-11
 2.681397936686214e-11
 1.5861323789035421e-10
 2.681397641444536e-11
 1.63010228644629e-11
 4.329441552070642e-11
 9.957005171346381e-12
 1.5745641458553474e-11
 1.2447904737245449e-11
 1.831422235030555e-11
 2.55807463679483e-12
 1.4393204802790972e-12
 1.0657759688844466e-11
 4.5373861022065395e-12
 1.234273980731315e-12
 5.107538476449873e-13
 1.9805104612532686e-12
 3.812591062670415e-13
 5.889738770533538e-14
 9.1894729479771e-13
 4.1925829207640753e-13
 2.3307165821091513e-13
 1.3014320490195196e-12
 1.2867205710751301e-12
 3.1889221655207305e-12
 2.3139034080339348e-12
 1.951824855334521e-12
 2.621768202937785e-13
 2.6730481174587163e-12
 4.983963976805406e-13
 9.259398718136883e-13
 9.862973884360248e-13
 4.616149172029899e-13
 2.0118737862607636e-12
 6.177017981228785e-12
 2.725700144610086e-12
 1.271840509657638e-11
 2.60837941437482e-12
 1.5343663812400204e-11
 5.919002726248315e-11
 2.1828053666411502e-11
 3.363658624322652e-11
 1.4375525522006885e-10
 3.4076225077893316e-11
 3.401121824089831e-11
 3.407622594246434e-11
 1.4375525868571307e-10
 3.3636578086119165e-11
 2.1828057059433247e-11
 5.919002743790695e-11
 1.5343665395223935e-11
 2.608378178495785e-12
 1.2718402741228977e-11
 2.7257000127982547e-12
 6.1770181853228926e-12
 2.011874079646778e-12
 4.616149528226045e-13
 9.862974566081376e-13
 9.25940146274932e-13
 4.98396329231161e-13
 2.6730480975706977e-12
 2.6217686267932533e-13
 1.951824726112081e-12
 2.31390306428085e-12
 3.1889225064879628e-12
 7.125669332448601e-13
 3.250105714339481e-12
 6.72166920535308e-12
 2.061286976973034e-13
 1.2472896116994768e-12
 2.2096039910063218e-12
 5.191487519864466e-12
 1.0580478338492282e-12
 7.467706486937589e-13
 1.6491544433885637e-11
 3.6410064858285326e-12
 2.399148480482275e-12
 7.571403122390542e-11
 5.394327971052524e-12
 2.2428957322925544e-12
 5.947285164700614e-11
 2.084595863157382e-10
 6.071266677095946e-11
 6.152423350156063e-11
 1.048224221461089e-09
 5.646851953189773e-10
 1.0063192240930412e-10
 5.646851384323178e-10
 1.048224223808456e-09
 6.152424269234313e-11
 6.071266864526415e-11
 2.0845957818908485e-10
 5.947285156208941e-11
 2.2428957487730044e-12
 5.394327980480874e-12
 7.571403076431285e-11
 2.399148470459639e-12
 3.641006564260412e-12
 1.649154437444552e-11
 7.467708383199618e-13
 1.0580479367144231e-12
 5.191487525892539e-12
 2.209604032549666e-12
 1.2472894256434073e-12
 2.0612872742120867e-13
 6.721668932073877e-12
 3.250105542047791e-12
 1.6925818314310993e-12
 4.292824025330486e-12
 2.9756421471796656e-12
 1.7203241495271236e-12
 8.677055230044242e-13
 3.0523222658656208e-12
 9.422160150604664e-13
 1.3184568661825572e-12
 1.1018556584403614e-12
 2.066359485187294e-12
 3.3961807965672843e-12
 4.541400322154048e-12
 9.040951231936605e-12
 1.7678013022230544e-11
 4.98455332054316e-12
 3.249653683863628e-12
 7.364303368572283e-11
 1.2964432450342606e-11
 6.96641397129193e-11
 3.086058853748738e-10
 6.81668200234538e-10
 4.630753616312829e-10
 6.816682909794056e-10
 3.0860588134188355e-10
 6.966414324115573e-11
 1.2964428444559595e-11
 7.364303542904043e-11
 3.249654440936448e-12
 4.9845551945185435e-12
 1.7678013970540794e-11
 9.040951682087309e-12
 4.541400151485967e-12
 3.3961802321336665e-12
 2.0663595143806377e-12
 1.1018554489568957e-12
 1.3184565073785571e-12
 9.422160784053733e-13
 3.052322258184987e-12
 8.677055068022179e-13
 1.7203242544254645e-12
 2.9756424474161057e-12
 4.292823731981333e-12
 1.3217692139033566e-12
 6.422780517183542e-12
 1.6591636201798758e-12
 4.107635397497206e-13
 4.981024664066182e-12
 5.404492019319505e-13
 4.3652591867139535e-13
 6.663033285259704e-12
 2.1271262040679837e-13
 6.3918069174056365e-12
 6.848915356778921e-12
 1.0489288632513769e-11
 1.145686795755282e-11
 4.366055182492258e-12
 6.461983660210978e-12
 1.7511319298265695e-11
 5.72389395982329e-12
 1.8863627242564986e-11
 2.0402031673159037e-10
 7.57502955349961e-10
 6.775547112818901e-10
 6.759375914778721e-09
 6.775547238356585e-10
 7.575031263502454e-10
 2.0402029665226554e-10
 1.8863627284886144e-11
 5.7238943678974095e-12
 1.751131707396317e-11
 6.4619830726545185e-12
 4.366055064910448e-12
 1.1456867554905404e-11
 1.0489288177957765e-11
 6.848915867013987e-12
 6.391807577283585e-12
 2.1271268489742254e-13
 6.6630332982693e-12
 4.3652595592066675e-13
 5.404489268905677e-13
 4.981024171205097e-12
 4.1076353357760075e-13
 1.6591633350551638e-12
 6.42278004960792e-12
 2.1348007000117397e-11
 9.683309387413912e-13
 1.1896822255019473e-12
 1.0145670588573067e-11
 1.811373821309023e-13
 6.921938530346449e-15
 1.8005293985377287e-12
 4.100709000053867e-12
 5.773402223230771e-12
 3.2283459759779724e-12
 3.1588417635627757e-11
 1.9471075946783376e-11
 8.047771919574254e-12
 1.478223825858892e-11
 4.2611182596487674e-11
 5.8782777349590076e-12
 5.061958390116732e-12
 2.0177665754643389e-10
 1.176442512911541e-09
 6.776028045268644e-10
 4.621270438672609e-09
 3.4122879750833276e-23
 4.621270438561268e-09
 6.776028049606544e-10
 1.176442512523585e-09
 2.017766574873712e-10
 5.061958373709385e-12
 5.878277752450961e-12
 4.261118257467118e-11
 1.4782238216670186e-11
 8.047771938754777e-12
 1.947107598039529e-11
 3.158841759503299e-11
 3.2283460242237934e-12
 5.773402233876654e-12
 4.100708987958257e-12
 1.800529367621106e-12
 6.921939014628103e-15
 1.811373783548548e-13
 1.0145670552871214e-11
 1.1896822408399252e-12
 9.683309647177774e-13
 1.3217692069562992e-12
 6.422780054645061e-12
 1.6591633301646299e-12
 4.1076354029356036e-13
 4.981024161629658e-12
 5.404489253546308e-13
 4.3652596201476815e-13
 6.663033286104808e-12
 2.1271268864332057e-13
 6.391807577051707e-12
 6.8489158659494376e-12
 1.0489288174880595e-11
 1.1456867575647697e-11
 4.366055061502288e-12
 6.461983074057675e-12
 1.7511317098145536e-11
 5.723894373108862e-12
 1.886362727928597e-11
 2.040202965756701e-10
 7.575031264368884e-10
 6.775547238221892e-10
 6.759375914709676e-09
 6.775547113180999e-10
 7.575029552096113e-10
 2.040203166837867e-10
 1.8863627241535517e-11
 5.723893953953075e-12
 1.7511319274683635e-11
 6.461983659949947e-12
 4.36605518171475e-12
 1.1456867938070963e-11
 1.0489288634228198e-11
 6.848915342812133e-12
 6.391806914970149e-12
 2.1271261534600426e-13
 6.663033281634221e-12
 4.365259149650102e-13
 5.404491973575169e-13
 4.981024659793037e-12
 4.1076354349296073e-13
 1.6591636212919279e-12
 6.422780520240079e-12
 1.6925818372225182e-12
 4.292823738395012e-12
 2.975642440460023e-12
 1.720324256022097e-12
 8.677055098955542e-13
 3.0523222570885006e-12
 9.422160856342068e-13
 1.3184565060079982e-12
 1.1018554429753483e-12
 2.0663595060246147e-12
 3.396180238036117e-12
 4.5414001445876015e-12
 9.040951699976132e-12
 1.767801397557924e-11
 4.9845551860169645e-12
 3.249654452020666e-12
 7.364303544266784e-11
 1.2964428450050586e-11
 6.966414321681216e-11
 3.08605881381072e-10
 6.816682908947966e-10
 4.630753616020043e-10
 6.816682004301328e-10
 3.0860588530899006e-10
 6.966413971798272e-11
 1.2964432443096379e-11
 7.364303372633449e-11
 3.2496536589984614e-12
 4.984553320526054e-12
 1.7678013032134953e-11
 9.040951216930583e-12
 4.541400326029269e-12
 3.3961808061743914e-12
 2.0663594819614626e-12
 1.101855662580839e-12
 1.3184568676387142e-12
 9.42216013023771e-13
 3.052322259831143e-12
 8.677055206951712e-13
 1.720324149449951e-12
 2.9756421436095694e-12
 4.2928240285351104e-12
 7.125669566130471e-13
 3.2501055428037626e-12
 6.7216689542559955e-12
 2.0612871731060253e-13
 1.2472894371736709e-12
 2.2096040478202883e-12
 5.1914875446695394e-12
 1.058047919171443e-12
 7.467708322848282e-13
 1.6491544415368004e-11
 3.64100655162839e-12
 2.3991484578838756e-12
 7.571403090315717e-11
 5.394327928345599e-12
 2.2428957532657176e-12
 5.947285167726666e-11
 2.0845957838079257e-10
 6.07126684658051e-11
 6.152424272452e-11
 1.0482242238961352e-09
 5.646851383518929e-10
 1.0063192232166478e-10
 5.646851954745719e-10
 1.0482242214636404e-09
 6.152423344456212e-11
 6.071266694236487e-11
 2.0845958615042114e-10
 5.947285160379113e-11
 2.242895706982933e-12
 5.394328022362307e-12
 7.571403113282385e-11
 2.39914848847401e-12
 3.6410065100218845e-12
 1.6491544424161722e-11
 7.46770646699473e-13
 1.0580478480990358e-12
 5.191487518242114e-12
 2.209603987063548e-12
 1.2472895943905795e-12
 2.061287113383379e-13
 6.721669195740915e-12
 3.250105719572505e-12
 1.2867205860360451e-12
 3.18892250566833e-12
 2.31390306360435e-12
 1.9518247335687764e-12
 2.6217686571655306e-13
 2.6730480972444343e-12
 4.983963308337597e-13
 9.259401468232917e-13
 9.862974601709194e-13
 4.616149517625173e-13
 2.0118740895306863e-12
 6.177018200029712e-12
 2.725700010541725e-12
 1.271840272270404e-11
 2.608378178413572e-12
 1.5343665406173118e-11
 5.91900273786106e-11
 2.182805707272427e-11
 3.363657810097817e-11
 1.4375525869470704e-10
 3.407622597761308e-11
 3.401121825506323e-11
 3.407622507017857e-11
 1.4375525520411417e-10
 3.363658624959295e-11
 2.182805362792155e-11
 5.919002720524887e-11
 1.5343663789903647e-11
 2.6083794121503723e-12
 1.271840508015763e-11
 2.7257001398486166e-12
 6.177017962896464e-12
 2.011873782078607e-12
 4.616149144984639e-13
 9.862973821754954e-13
 9.259398716789885e-13
 4.983963870317516e-13
 2.673048118533082e-12
 2.621768160104214e-13
 1.9518248463976042e-12
 2.3139034098777696e-12
 3.1889221668372393e-12
 7.946233072678976e-13
 1.3014320431386822e-12
 2.3307165682631096e-13
 4.1925829370887114e-13
 9.18947291103888e-13
 5.889738747542288e-14
 3.812591034031653e-13
 1.9805104603928594e-12
 5.107538499544932e-13
 1.2342739821104347e-12
 4.537386118049226e-12
 1.065775967803688e-11
 1.4393204741186831e-12
 2.558074654641648e-12
 1.831422237855907e-11
 1.244790474160096e-11
 1.574564143683507e-11
 9.957005195819048e-12
 4.3294415501531925e-11
 1.6301022873078024e-11
 2.6813976459835525e-11
 1.5861323796051536e-10
 2.6813979350540366e-11
 1.630102554807992e-11
 4.329441508968523e-11
 9.957005808785715e-12
 1.574564102572039e-11
 1.2447904591192595e-11
 1.831422363488821e-11
 2.5580749625174466e-12
 1.4393202000753038e-12
 1.0657759261025231e-11
 4.537386455795681e-12
 1.234274084878088e-12
 5.107540021959215e-13
 1.9805104259071888e-12
 3.812590807809638e-13
 5.88973507177456e-14
 9.189471440124358e-13
 4.1925823637469773e-13
 2.330715528116104e-13
 1.3014318748129046e-12
 5.015276317757929e-12
 1.3925430428133922e-13
 1.6143418599846483e-13
 1.656580273260983e-12
 1.6352244893619325e-13
 7.534640925280712e-14
 7.005723704946463e-13
 7.497151945653488e-13
 3.0435637825944047e-12
 9.153410920594272e-13
 1.760392243304719e-11
 2.135169734775425e-12
 9.6634932400475e-13
 7.48558371109498e-13
 6.051614483897812e-11
 8.80626995055937e-12
 7.965991210745942e-12
 3.585141440426636e-11
 1.0440563256197564e-10
 5.635471559933527e-12
 4.652065468126857e-11
 1.3695873440685857e-10
 4.652065504107995e-11
 5.63546997204365e-12
 1.044056328998067e-10
 3.585141713378026e-11
 7.965989734259754e-12
 8.806269550326093e-12
 6.051614456658632e-11
 7.485582841799464e-13
 9.663492490772655e-13
 2.1351697904201244e-12
 1.760392205643532e-11
 9.15341051606054e-13
 3.0435638150413882e-12
 7.497152292934807e-13
 7.005723365486754e-13
 7.534640508011319e-14
 1.6352245749076832e-13
 1.6565802434278292e-12
 1.6143416894853169e-13
 1.3925425273437768e-13
 4.0340988778655456e-14
 8.971152137272555e-13
 4.025919463303972e-13
 2.117035300896557e-13
 1.0916733778995876e-13
 6.449966931047637e-13
 1.1261498122769889e-12
 7.562366554920713e-13
 5.49780792102871e-13
 2.411507874024199e-12
 2.476779385976555e-14
 7.901974540478893e-12
 2.710661732862192e-13
 9.586660992697332e-12
 2.0591536653875307e-12
 1.6038459600067726e-12
 3.4025338704711997e-12
 3.7073510786154384e-11
 4.4901493686865116e-11
 6.218371383394139e-12
 4.512248333004999e-12
 4.868163853835819e-12
 4.5122478564087105e-12
 6.218372447483265e-12
 4.4901495872141076e-11
 3.707350885405784e-11
 3.4025342275745476e-12
 1.6038464205888855e-12
 2.059153430150336e-12
 9.58666114940806e-12
 2.710660910938226e-13
 7.901975125381521e-12
 2.4767779216395458e-14
 2.4115078728557904e-12
 5.497806530956485e-13
 7.562367519751077e-13
 1.1261498392060256e-12
 6.44996618981596e-13
 1.0916742023727796e-13
 2.1170353937285804e-13
 4.0259195199847954e-13
 8.97115338657585e-13
 3.680971287869607e-14
 5.982368609235794e-13
 7.153767627112258e-14
 6.543819048974754e-14
 6.803160501218787e-14
 4.570476225735502e-13
 6.374937833576319e-13
 1.0296587946689508e-13
 1.2554699401523206e-13
 6.078059930324522e-12
 7.525192269832873e-13
 1.8320371337098515e-12
 2.934806443979165e-12
 1.2710712624316527e-11
 5.514976339972356e-13
 1.328966500854737e-12
 1.9088330643426945e-12
 1.6612587884395192e-11
 9.985278387929775e-12
 4.304191371679138e-11
 9.23333497099262e-12
 1.455561098603974e-12
 9.233333557055407e-12
 4.304191399861169e-11
 9.985278351571755e-12
 1.6612588143833932e-11
 1.90883330136018e-12
 1.3289669094924349e-12
 5.514974613324614e-13
 1.2710711778292392e-11
 2.9348067733304687e-12
 1.8320371335052285e-12
 7.525192896442833e-13
 6.078060134794579e-12
 1.2554701013954828e-13
 1.0296589927938485e-13
 6.374937965353626e-13
 4.570477315978119e-13
 6.80316141871646e-14
 6.543820263336466e-14
 7.153768009576127e-14