# OOMMF: rectangular mesh v1.0
# Segment count: 1
# Begin: Segment
# Begin: Header
# Title: /home/kathryn/oommf12a4pre-20091216/KLK_Items/manyspheres-Oxs_MinDriver-Magnetization-01-0002868.omf
# Desc: Oxs vector field output
# Desc: MIF source file: /home/kathryn/oommf12a4pre-20091216/KLK_Items/OrderedCubesPlain16.mif
# Desc: Iteration: 2868, State id: 363758
# Desc: Stage: 1, Stage iteration: 0
# Desc: Stage simulation time: 0 s
# Desc: Total simulation time: -2 s
# meshtype: rectangular
# meshunit: m
# xbase: 1.0000000000000001e-09
# ybase: 1.0000000000000001e-09
# zbase: 1.0000000000000001e-09
# xstepsize: 2.0000000000000001e-09
# ystepsize: 2.0000000000000001e-09
# zstepsize: 2.0000000000000001e-09
# xnodes: 40
# ynodes: 40
# znodes: 10
# xmin: 0
# ymin: 0
# zmin: 0
# xmax: 8.0000000000000002e-08
# ymax: 8.0000000000000002e-08
# zmax: 2e-08
# valueunit: A/m
# valuemultiplier: 1
# ValueRangeMinMag: 499999.99999999988
# ValueRangeMaxMag: 500000.00000000017
# End: Header
# Begin: Data Text
-462736.17990965360  69994.843126509820  995477.74949434000
-353083.38608456970  123222.36791233126  1034479.7583892749
-210558.48052810985  77980.380441627160  1076839.9075739498
-83632.284108857130 -87760.155553422800  1093299.4997492565
 21021.232050303900 -383275.36903754895  1030853.0929731055
 130406.72386304606 -773666.10876724030  770996.00421549790
 257851.07221702673 -1050522.5420839860  199787.92038041070
 355925.79671782120 -920308.24766172200 -486157.95428707610
 394983.04293802794 -453347.00701272730 -921121.53759643370
 402728.32729788210  117301.13807099823 -1016882.6566517389
 389901.27068633240  665281.26245587650 -784460.22266415720
 330050.44907157833  1025766.4052398010 -221065.56255795647
 209472.33619890700  975107.92109067500  463989.09749432025
 88362.858447865730  622148.90322961860  902841.48523265460
# End: Data Text
# End: Segment