# vtk DataFile Version 5.1
vtk output
ASCII
DATASET RECTILINEAR_GRID
DIMENSIONS 65 65 5
X_COORDINATES 65 double
-1.6e-07 -1.55e-07 -1.5e-07 -1.45e-07 -1.4e-07 -1.35e-07 -1.3e-07 -1.25e-07 -1.2e-07 
-1.15e-07 -1.1e-07 -1.05e-07 -1e-07 -9.5e-08 -9e-08 -8.5e-08 -8e-08 -7.5e-08 
-7e-08 -6.5e-08 -6e-08 -5.5e-08 -5e-08 -4.5e-08 -4e-08 -3.5e-08 -3e-08 
-2.5e-08 -2e-08 -1.5e-08 -1e-08 -5e-09 0 5e-09 1e-08 1.5e-08 
2e-08 2.5e-08 3e-08 3.5e-08 4e-08 4.5e-08 5e-08 5.5e-08 6e-08 
6.5e-08 7e-08 7.5e-08 8e-08 8.5e-08 9e-08 9.5e-08 1e-07 1.05e-07 
1.1e-07 1.15e-07 1.2e-07 1.25e-07 1.3e-07 1.35e-07 1.4e-07 1.45e-07 1.5e-07 
1.55e-07 1.6e-07 
Y_COORDINATES 65 double
-1.6e-07 -1.55e-07 -1.5e-07 -1.45e-07 -1.4e-07 -1.35e-07 -1.3e-07 -1.25e-07 -1.2e-07 
-1.15e-07 -1.1e-07 -1.05e-07 -1e-07 -9.5e-08 -9e-08 -8.5e-08 -8e-08 -7.5e-08 
-7e-08 -6.5e-08 -6e-08 -5.5e-08 -5e-08 -4.5e-08 -4e-08 -3.5e-08 -3e-08 
-2.5e-08 -2e-08 -1.5e-08 -1e-08 -5e-09 0 5e-09 1e-08 1.5e-08 
2e-08 2.5e-08 3e-08 3.5e-08 4e-08 4.5e-08 5e-08 5.5e-08 6e-08 
6.5e-08 7e-08 7.5e-08 8e-08 8.5e-08 9e-08 9.5e-08 1e-07 1.05e-07 
1.1e-07 1.15e-07 1.2e-07 1.25e-07 1.3e-07 1.35e-07 1.4e-07 1.45e-07 1.5e-07 
1.55e-07 1.6e-07 
Z_COORDINATES 5 double
0 5e-09 1e-08 1.5e-08 2e-08 
CELL_DATA 16384
VECTORS field double
-462736.17991 69994.843127 995477.74949 -353083.38608 123222.36791 1034479.7584 -210558.48053 77980.380442 1076839.9076 
-83632.284109 -87760.155553 1093299.4997 21021.23205 -383275.36904 1030853.093 130406.72386 -773666.10877 770996.00422 
257851.07222 -1050522.5421 199787.92038 355925.79672 -920308.24766 -486157.95429 394983.04294 -453347.00701 -921121.5376 
402728.3273 117301.13807 -1016882.6567 389901.27069 665281.26246 -784460.22266 330050.44907 1025766.4052 -221065.56256 
209472.3362 975107.92109 463989.09749 88362.858448 622148.90323 902841.48523 10861.148464 278866.70143 1064009.1157 
-19446.204657 63119.860888 1098015.3589 194.65830388 -37172.087786 1099371.7288 66913.47102 -57369.760355 1096463.0856 
152267.06694 -29755.869671 1089003.8239 208084.18291 9399.9346713 1080098.4279 198684.45567 13003.601008 1081829.6508 
118249.22044 -70880.105632 1091326.3181 -27693.573888 -281026.38221 1063135.5692 -248944.83957 -597039.62126 889702.28588 
-538371.5839 -844388.48929 455152.84993 -788433.89883 -756944.49193 -124125.031 -908600.56656 -337405.40705 -520194.77288 
-920704.99445 206256.5642 -565473.73319 -832075.64381 675920.52806 -246539.17075 -614489.83343 853497.36835 322404.22892 
-327482.34265 641263.38115 831586.79117 -80588.332905 232738.51049 1072071.9688 142949.17039 -186583.81953 1074593.8828 
420604.72451 -531610.71335 866303.47753 748627.125 -660179.22817 462299.48562 999270.39771 -457965.28431 41550.819779 
1089196.5497 -25365.12897 -151682.18872 1014035.9522 426016.59895 -15522.407649 778932.28134 677202.23606 380344.09757 
455301.38398 605156.22657 797801.09751 178897.91234 335011.92225 1032357.7621 -16368.96359 68912.52974 1097717.2315 
-172203.57113 -99827.834923 1081841.1776 -308590.55721 -147970.13679 1045407.4357 -402581.36588 -87708.324975 1019919.3564 
-420196.34235 32450.973038 1016061.9903 -356002.77921 138427.26589 1031552.1864 -243539.7971 166131.99846 1059758.7114 
-127200.5998 85358.189486 1089281.4085 -26016.673326 -111640.85013 1094010.719 77813.333604 -425364.84375 1011439.4865 
220397.56884 -802296.58961 719545.0604 401604.51311 -1014928.7026 136504.73901 541210.32754 -816807.55856 -499916.78672 
602966.80643 -325061.23586 -860677.76972 618454.79553 243358.56021 -876521.69229 586091.16592 750874.38759 -550167.97371 
461341.67547 996151.968 69606.86116 255730.51415 822738.65616 683888.15445 59785.288529 441714.98202 1005640.8872 
-107672.60363 120744.18464 1088038.3506 -268657.15837 -57161.676174 1065155.3286 -410254.01672 -94264.125347 1016270.5921 
-486232.63474 -28609.865493 986285.60798 -92754.513252 21031.324918 1095880.5973 -52889.191911 42744.516742 1097896.0059 
-19756.133836 452.48574279 1099822.4813 -8123.6953277 -144562.3931 1090429.1449 -21629.356739 -423795.31632 1014854.522 
-60037.826637 -810511.43724 741260.19014 -115210.6423 -1083958.3858 147515.17112 -157117.83609 -938455.08454 -551920.32023 
-171262.92189 -459426.01831 -984681.03734 -171346.82759 115728.67875 -1080392.1221 -163326.22744 671868.25399 -855521.8248 
-137658.08489 1051515.5116 -292173.54521 -89072.759812 1013538.9435 418096.7035 -38023.843989 648574.17119 887640.54198 
12850.976754 275002.21341 1064992.3169 89828.829122 15703.840187 1096213.5608 217629.12174 -130974.5323 1070272.5061 
386413.60442 -172454.90954 1015354.0419 535390.42217 -113518.34385 954185.87364 590409.04995 4923.50249 928112.55398 
519099.50146 100806.51809 964558.83879 342191.6247 92442.622975 1041325.7192 100931.79295 -54537.984161 1094001.0884 
-190013.67983 -300400.33043 1040987.2444 -533417.30073 -513454.44426 813529.66569 -860987.75308 -511285.68628 455287.86064 
-1059343.332 -243861.02008 168295.894 -1081701.9377 151301.62042 130494.20501 -926760.04737 469131.6434 361982.4799 
-634044.94879 539719.18964 718811.6577 -321504.47992 342207.62729 994750.62665 -79099.435799 -11797.876952 1097088.9159 
123933.52222 -439463.59484 1000755.8298 356364.99481 -834464.18183 621830.78061 593725.0524 -925794.01554 -19899.822708 
728196.83284 -585606.57811 -580339.82141 758280.57472 -23746.360203 -796521.61326 717661.51895 549896.59326 -626558.60135 
584468.07842 926900.70657 -96188.073444 362237.90344 880921.11568 550237.84789 169102.53088 531811.1574 947935.24405 
66484.070775 192384.44932 1081003.2803 34424.048238 -16574.93509 1099336.28 47071.559589 -94240.453668 1094944.2932 
79458.779942 -67624.201634 1095040.305 102075.59625 18891.878401 1095090.7129 96081.511971 101658.23856 1091070.092 
67737.794709 121097.93269 1091213.4905 37143.549625 41743.394408 1098579.9223 16806.597009 -156168.03343 1088728.1955 
6631.816855 -484037.17852 987757.06974 2291.6877665 -885490.78636 652610.76871 2626.7346766 -1099996.8314 266.72674779 
10067.958657 -867461.02214 -676320.93808 24263.72957 -349317.87973 -1042779.1187 41716.130981 234536.83372 -1073895.8227 
55651.266915 778955.97971 -774680.91377 53851.320647 1089817.3883 -139277.04543 29595.814056 948790.06356 555807.07362 
-5418.0325023 556626.01676 948756.09215 -43983.119827 224028.63163 1076046.7729 -83345.852547 35404.436672 1096266.3886 
-112696.57574 -31751.076895 1093751.0461 -117251.55691 -20389.306451 1093543.0255 262968.2455 -904.72509085 1068104.341 
250498.16154 44693.754089 1070165.0057 186838.81956 30541.558675 1083585.9305 88246.873443 -86881.572525 1093006.8992 
-38939.7878 -333585.69551 1047475.1914 -212244.17176 -681976.80079 836576.38907 -433815.13488 -949837.3608 345851.72659 
-619894.87446 -862405.55807 -286333.71795 -704432.16153 -438957.66559 -721866.67579 -718393.66724 109379.10287 -825800.67251 
-679202.07543 631140.08569 -591900.94861 -554544.06504 948632.45182 -50767.620335 -345989.85129 876449.77082 567562.1746 
-147165.45435 528345.04946 953516.56397 10218.613655 157983.14565 1088548.0723 178957.27329 -139895.95355 1076291.5109 
410489.35683 -341033.46931 961870.39706 686384.92063 -390024.80548 766000.25577 906029.26727 -248164.0764 572298.48683 
977553.51362 18511.970379 504030.19251 873724.08805 265081.21748 613464.07076 623538.73517 355097.22868 833729.81471 
302494.76796 246749.64526 1028402.4154 -20482.067979 23284.285746 1099562.789 -332779.71613 -176060.01612 1033566.8973 
-614871.60014 -234823.7642 881357.3141 -797873.66812 -122018.61315 747334.64242 -820653.67682 81859.867004 727891.82225 
-679738.4071 240039.409 830865.07932 -443994.27647 250338.75658 974781.81631 -220664.25648 97640.458361 1073207.1686 
-68275.468423 -191740.24746 1081006.0767 28344.636297 -600131.46871 921433.01539 106973.92457 -1001403.9901 442432.62545 
170095.45331 -1042351.0434 -307525.34694 194265.70863 -620897.1822 -886987.89371 191097.22166 -13642.40783 -1083187.7661 
174280.39816 598963.52538 -906018.23276 139525.77201 1037497.0874 -337834.80077 89761.605719 1011474.7422 422920.44166 
65641.789835 603812.69852 917115.79451 101044.86924 189278.71535 1078871.4021 211483.84163 -82274.507141 1076338.9291 
386733.03682 -191670.5089 1011780.5959 558391.1605 -140541.38636 937255.26438 629324.16721 20388.050555 901961.98366 
555161.4044 179944.66482 932424.65254 381699.66057 231825.35529 1005267.3146 199860.39199 139625.06691 1072641.9087 
58791.503667 -78963.070637 1095585.8673 -61962.052875 -406344.32512 1020316.1243 -210011.34465 -790746.74337 735265.13787 
-390203.23819 -1016428.5429 156889.92962 -518822.30513 -836626.30259 -490795.11561 -557441.64418 -356585.21268 -878695.51008 
-545413.81243 212204.13686 -931393.138 -497263.34235 740466.94744 -643768.48953 -387150.98096 1028926.5836 -37738.619762 
-227817.39668 890372.28238 604430.66809 -95469.201871 521409.26441 963855.80378 -5781.8641922 202947.72681 1081100.7308 
69966.541747 13414.366372 1097690.6385 149179.7082 -61765.787584 1088085.6594 222410.40714 -53350.980902 1075958.7741 
659277.99334 -12792.355518 880448.11496 606740.5391 117976.90767 909916.13211 451265.69549 164632.26739 989573.38717 
243969.82054 79580.081812 1069647.4827 19889.520405 -134772.79846 1091531.3554 -236320.65893 -428580.70215 985124.9301 
-547687.1706 -670264.71184 678810.70942 -847536.1029 -663580.01258 226592.41202 -1029431.3305 -361517.56002 -139914.9371 
-1070376.383 90867.550381 -236722.38381 -975280.68143 508056.82684 -26567.896672 -741473.23628 709550.68264 395923.31157 
-436054.91686 606299.53922 807624.28036 -176448.63793 309974.77254 1040567.8827 22313.507754 -35548.532176 1099198.9853 
230773.31363 -376307.24407 1007539.8433 508781.34472 -642233.01547 733947.06697 812090.5181 -675815.38669 306239.37291 
1018959.2613 -408251.31273 -71083.679318 1081987.6177 31106.502924 -195793.71965 1002784.9338 451996.85403 -11010.016586 
774817.27861 670701.08667 399772.73182 445469.18218 590193.95051 814388.30327 130333.82744 329112.14873 1041488.4958 
-120665.4261 87823.231123 1089828.8558 -311391.92998 -34299.38421 1054447.0675 -423651.8771 -34474.506379 1014559.311 
-429535.49329 31574.742234 1012177.0081 -335871.63058 87322.741875 1043822.2964 -199107.43284 75568.111305 1079187.5142 
-90892.012079 -30093.571301 1095825.2685 -52196.084868 -251432.99559 1069606.0104 -92036.714281 -604326.20568 914504.82795 
-202195.6469 -976408.35698 464482.12108 -326069.63393 -1018435.811 -257812.12667 -390092.68989 -607382.49275 -830008.55466 
-408931.06527 -3699.4246567 -1021157.0389 -404947.06811 601824.19093 -826937.43127 -350828.82124 1013899.6487 -242748.10118 
-217625.22054 952621.1073 505126.0133 -56355.594204 512153.20712 971865.8032 119534.54128 40390.908139 1092739.7073 
364884.7344 -310771.44283 990091.02658 683360.58999 -451264.87319 734423.80018 953566.55612 -309205.27954 452882.89672 
1047766.9576 33476.060299 333262.29308 928886.0903 369552.3389 458913.60849 647419.69027 499549.78059 735729.4077 
340379.09738 373477.6717 977065.24798 109348.46253 101842.32439 1089803.2183 -75912.121813 -222750.05811 1074532.3454 
-297663.84829 -554324.20578 902286.48904 -588539.18069 -772261.61797 516946.44423 -853505.10142 -693825.67791 11617.681479 
-988987.66657 -322811.77257 -357345.70778 -997997.78021 174083.00598 -428597.17419 -893031.62545 619186.73944 -170593.95549 
-663027.56185 815549.31389 324459.19442 -371553.41163 669342.56879 789891.50389 -129927.6024 354869.09176 1033047.3106 
56280.269944 68291.376337 1096434.5941 236561.13166 -120632.71599 1067467.3666 427699.41691 -191723.39733 995145.89267 
589256.27664 -142886.69443 917801.95739 1019150.7681 -25283.968178 413149.4075 947880.74694 253865.86252 497065.60273 
731573.78999 401100.87855 716880.65606 436574.65211 347762.28588 947873.39116 141488.44012 136266.31901 1082318.1194 
-139171.92152 -129377.88966 1083463.2148 -436801.88291 -338718.21679 951038.42441 -732621.67322 -383066.76951 725620.65435 
-941122.68624 -223578.92007 523737.10577 -993299.66455 57441.971591 469101.47761 -873665.20032 311137.76958 591525.49066 
-625139.04836 408525.22424 807656.06008 -350039.42482 315677.53977 993891.38841 -134128.41642 87622.089253 1088270.1583 
26574.552112 -229118.15972 1075545.7508 191936.7609 -608688.98297 895911.82704 404686.92773 -919821.28233 447389.42668 
607736.34633 -898382.00171 -183211.11416 717007.17792 -510941.48235 -659423.61834 748779.72662 31476.083382 -805194.49649 
724068.54784 562131.6714 -608056.5122 609298.64486 910768.4189 -96208.359864 388815.50138 886617.30824 522237.73763 
159616.70589 577187.8701 922700.7477 -3857.8228261 265376.38555 1067501.9865 -100736.83881 75183.501905 1092794.3678 
-132477.95874 -2366.5754444 1091990.8378 -97635.505633 -12770.118859 1095583.9685 -18309.715441 -431.79764353 1099847.5203 
55833.949362 -1411.8066562 1098581.1654 76100.976155 -51602.952648 1096150.4353 16788.603536 -194386.89817 1082558.0246 
-136862.09603 -459047.19857 990224.43727 -394437.03803 -768959.92165 680529.25134 -685899.23962 -852135.68522 115788.63095 
-867729.08904 -539232.62108 -407767.59117 -920137.05613 777.28516311 -602782.87449 -871236.76573 539789.07083 -399467.46683 
-693985.97183 841753.85414 140832.9505 -405190.1255 713573.08195 732553.35568 -127578.95358 279835.74665 1056132.3617 
118634.77398 -221872.53427 1070840.0296 410455.35448 -651011.66383 785945.42784 734586.43273 -784306.00481 235046.51385 
944898.42744 -487008.03258 -282825.27825 994101.29206 54858.713918 -467710.53294 901175.9436 581769.68557 -243774.38676 
660641.28578 831505.63796 286620.7696 358622.73885 672456.7545 793216.01377 130915.17513 320240.17261 1044177.8818 
-37682.300297 -13735.020737 1099268.572 -233325.4435 -280702.09246 1037673.1531 -507256.97333 -448984.20568 866662.3022 
-807810.3542 -438920.67343 603979.36561 -1013242.5366 -219783.87996 367470.55422 -1051427.8216 115963.85122 301748.10871 
-915611.47923 406424.99372 454394.48013 -646107.61254 502591.95786 734810.36799 -342314.68033 371533.19377 977130.36262 
-83717.098676 116283.10368 1090628.1159 148905.86299 -153998.22824 1078940.0306 409881.21457 -364083.09547 953646.10288 
696484.78356 -429291.54388 735267.10563 926323.18025 -297893.19556 513015.60382 1062269.1833 -40454.075 -282750.15489 
1014801.2314 397006.14953 -150215.10597 835894.07446 677174.52483 229599.12718 544636.64061 672991.54548 678567.10016 
239137.09105 433219.17506 982412.64143 -16531.745391 142182.94608 1090646.9233 -240161.4639 -70748.945926 1071128.8708 
-440912.9668 -152710.21983 996130.1845 -579368.41426 -103507.52391 929310.73008 -606245.1674 22832.405877 917575.87056 
-511744.74302 140695.0573 963494.7944 -343492.25976 179610.84275 1029443.0595 -178193.5373 114072.46138 1079460.2989 
-63426.694589 -56632.860338 1096708.6092 4335.8060409 -343528.26232 1044973.4608 54931.416497 -735738.7815 815886.62501 
111529.97605 -1059989.7195 271997.90262 162601.31518 -993381.49787 -443569.62474 189900.40711 -548654.24378 -934299.92838 
203165.65479 23452.145103 -1080820.8518 207639.66375 590319.56018 -904659.37618 187984.28047 1012217.7846 -387397.81468 
127854.49132 1043049.8069 325115.87076 57591.985569 710940.22564 837405.01477 16369.347209 343561.60398 1044843.2747 
19849.442804 94589.0568 1095745.8236 78094.180928 -40313.775442 1096483.5149 185798.62381 -90863.616478 1080380.8007 
302569.507 -76946.53854 1054765.8146 365778.99263 -27564.533003 1037037.0895 332292.63549 2960.1969492 1048605.1886 
196014.2791 -48811.882979 1081293.5783 -34565.406326 -215406.4594 1078149.011 -356900.83632 -441742.98503 942064.18476 
-723019.13707 -547876.11942 622153.58651 -998615.50986 -378140.41979 264153.14948 -1094736.7408 1290.5009575 107470.00989 
-1000235.9313 380368.53049 254652.43504 -737816.22972 540915.70587 610767.88578 -409454.10196 388244.9726 944252.70963 
-142659.39729 12605.650366 1090637.1505 54935.672908 -475076.36182 990598.06293 243243.39499 -930159.56204 534449.09949 
408347.81333 -996139.93895 -225737.20423 476443.59327 -559660.60982 -818401.79878 472857.57993 78785.366729 -990049.78415 
428598.47581 698456.72812 -733799.39049 326144.71733 1047772.4664 -76174.024771 187295.91521 882533.66697 629328.66358 
88654.997255 467400.96702 991804.73254 20861.777899 125770.74768 1092587.0699 -74392.100332 -85054.864955 1094180.7371 
-239508.82558 -190076.22553 1056648.7358 -456788.29047 -193005.50037 981882.54619 -639665.91714 -91036.191397 890247.1153 
-701089.63358 72837.672116 844492.74668 -617715.0705 208799.72764 885906.74758 -431596.35712 230952.68055 985081.44022 
-215751.50632 110937.90791 1072913.8214 -9337.2817205 -121727.40166 1093204.1231 213239.26975 -416037.46059 995711.72797 
491482.48924 -672841.05389 718143.35544 785247.89499 -717281.02388 280880.18123 988208.27139 -468468.24698 -118245.14332 
702852.84076 -55062.432202 -844373.14784 695291.56353 470026.5152 -711086.99657 618648.05296 868250.72983 -270952.49901 
439817.72569 946606.85689 347125.08792 219638.12713 687227.84944 830347.50319 42178.020695 343355.47612 1044187.7377 
-86990.90655 93194.829083 1092587.4363 -177802.07344 -31024.173663 1085091.6659 -218326.13396 -53423.937518 1076791.3364 
-194099.78015 -15739.642895 1082625.2994 -117244.44168 36240.726045 1093133.2721 -29977.629739 62381.805133 1097820.5009 
24131.084774 30608.309927 1099309.2477 27427.614711 -91352.892261 1095856.9136 -16788.785723 -338121.18467 1046609.861 
-105479.49097 -705609.8731 837250.72945 -230203.93474 -1025859.1008 323448.99721 -335605.23089 -977884.52942 -375647.40931 
-375830.11815 -551519.48083 -874401.50077 -376377.28089 13682.896588 -1033514.8382 -358136.66856 577617.12289 -864925.76905 
-306590.62508 994943.47691 -355091.06773 -205986.82727 1024026.2478 344876.31223 -97608.957749 691026.98244 850267.13503 
-7105.9906574 305843.60318 1056602.6667 97341.131292 14957.311949 1095582.4857 254774.0153 -172635.9248 1056071.5121 
465044.82646 -249618.03878 965103.17795 661827.08188 -196680.77577 856330.302 754043.12406 -43702.078917 799693.12574 
694141.17094 113579.61902 845735.00871 493314.2814 169443.8643 968467.75714 199636.39425 80452.758622 1078736.6053 
-137248.53145 -93268.302782 1087411.5432 -472858.11854 -213991.70612 969851.9214 -731749.35118 -173008.10461 802876.75442 
-834635.34903 8329.3702846 716459.6679 -754635.40637 197864.97582 775483.62639 -539345.64711 255213.73023 924106.17617 
-301013.42155 125899.39697 1050495.246 -136995.41919 -166017.69947 1078735.5462 -69697.743975 -589955.75487 925793.94672 
-79234.986055 -1010000.0566 428511.0299 -124864.13793 -1031653.105 -360694.90975 -161621.40844 -553320.13926 -936864.63474 
-186620.94594 102478.42364 -1079199.1453 -198796.90469 731127.75775 -797453.44224 -167201.42348 1082300.1451 -103296.0791 
-75932.638258 894231.35277 636069.58909 26725.907347 460301.5027 998703.28551 109538.45785 136762.06004 1085954.6331 
148034.83093 -17321.428288 1089855.7964 108830.21247 -52937.666854 1093322.271 -14040.184175 -25582.096058 1099612.8544 
-167607.68506 28995.558548 1086769.0286 -270029.28774 86325.961363 1062841.4803 -278904.58332 116014.30803 1057711.1674 
-209133.08141 78900.313906 1077050.6463 -100614.38505 -56319.978825 1093940.0374 23883.703191 -303043.75695 1057163.2088 
177133.81264 -641255.03866 876022.59549 374496.93559 -935985.5603 440094.39459 561926.94266 -928841.49388 -177458.70044 
666428.21986 -571387.60217 -662864.71913 166724.90304 -70287.592111 -1085017.263 180247.65707 480294.42165 -973050.89829 
176283.6149 938619.82076 -545817.66113 135316.97272 1083387.1269 134021.0812 70748.75354 825843.20563 723171.91151 
19280.047165 443018.33061 1006659.3458 -3610.5677939 151604.68236 1089496.6655 11809.442088 -16641.891203 1099810.704 
75221.510924 -87728.088668 1093912.9338 176863.42952 -86239.614612 1082257.8511 274658.33097 -34755.790171 1064591.394 
316739.9848 29740.948302 1052991.5755 279010.14508 54094.798267 1062650.9736 173254.28009 -15122.287081 1086164.9372 
19834.936557 -212515.51008 1079093.9409 -185213.97238 -525747.90837 948306.34358 -451915.30026 -822309.38848 574090.43799 
-708048.94514 -841822.89319 -952.78337117 -850298.71609 -507383.56723 -479117.94907 -885019.25051 5714.3297457 -653229.11193 
-839174.80838 520216.74501 -484933.16981 -690516.45546 856200.54629 -10375.416379 -443321.01041 834542.88327 563031.66671 
-203292.08801 526611.56526 944114.71035 -20964.701494 162016.2129 1087801.0977 156720.79619 -160465.90852 1076888.7056 
395482.93294 -411587.26938 940313.33578 694122.79236 -512942.0398 681970.68334 951354.20878 -383368.49043 397433.98193 
1067542.2497 -72695.837561 255085.9859 1010871.0232 261540.62342 346029.30056 788015.69567 453323.05293 619297.56423 
452986.33794 419226.86774 910523.04255 107436.45314 234044.11674 1069430.1099 -178807.43816 60053.610619 1083707.2778 
-376766.28004 -5819.5390881 1033447.291 -459063.5328 26875.777458 999268.91548 -417652.32882 82815.051967 1014252.5324 
-293667.4491 82969.350207 1056823.3136 -167720.41154 -12466.535595 1087066.9018 -112928.04709 -215974.97565 1072661.2075 
-172701.51718 -533992.74345 946058.10387 -364043.70068 -873522.95214 560740.43556 -608696.91718 -911372.90281 -94273.511874 
-755699.35248 -498190.53146 -625079.74133 -797390.70273 115150.07418 -748938.26689 -749256.30212 679155.25277 -432854.63654 
-556817.14615 921548.24918 225174.35509 -248016.96493 685656.12036 823628.11373 42202.002859 275939.93123 1063990.6697 
284383.04878 -3019.2518266 1062599.2498 466441.78516 -82212.037589 992810.77851 536417.95129 -12022.237544 960266.23774 
460049.61503 106701.49685 993463.20631 276230.79338 182455.63206 1049002.6173 89177.136308 185841.25663 1080513.9822 
-22356.988015 136058.53884 1091324.0761 -53512.416804 39533.265375 1097986.1302 -36510.196657 -125996.16588 1092150.1599 
-1793.2423543 -391507.70403 1027968.1425 38213.211174 -753505.85872 800480.27544 82781.285606 -1059532.0506 283794.10236 
122738.8341 -1015535.09 -404504.21451 148462.5513 -610322.69546 -903031.05055 -394444.20456 -86852.096362 -1023166.889 
-371416.42748 461221.07643 -926997.8188 -325231.69716 918103.92476 -511184.43492 -236416.67115 1063040.0013 155090.66167 
-128920.56673 809326.26565 733737.33938 -41606.277358 421286.13826 1015276.7639 40760.819844 103786.17012 1094334.0379 
158001.71061 -110491.55602 1082971.4103 333801.27776 -226362.26274 1023394.7591 539538.48912 -228729.59363 930903.3203 
693541.67429 -116395.73284 845843.94506 722730.21819 52385.437152 827597.00199 611482.33727 176773.05698 897129.10862 
399514.87492 171487.32602 1010435.5307 144839.61877 14104.981861 1090331.3874 -132684.96133 -247836.82567 1063471.4895 
-452847.50972 -501111.05975 868226.26011 -783240.83468 -574980.41019 515685.29434 -1018969.8963 -377457.59875 170956.46125 
-1099639.4327 1841.2672385 28102.094774 -1017934.362 385265.73489 159310.85417 -784643.54257 594323.32521 491033.90535 
-474918.55831 536899.22692 834380.95802 -208415.19501 288420.06986 1040853.9618 -12862.896868 -34045.961348 1099397.7526 
174022.60871 -385913.31825 1015276.8305 419859.65025 -705360.34369 732246.31078 704455.25558 -809081.54248 243166.30216 
911593.41582 -569426.83453 -233988.29958 995824.79182 -108500.86505 -454489.32471 972917.64278 381789.37195 -343027.89367 
825734.53936 724183.64459 60996.060574 546892.53042 762044.97134 574626.85442 238028.02787 536249.89325 930472.30477 
5624.1331431 275588.27689 1064903.503 -132198.47191 112920.67161 1086173.3222 -180556.90513 46067.351869 1084101.9339 
-150018.72242 23867.449173 1089460.7509 -75705.532392 -1318.8852185 1097390.9663 -15593.771505 -58769.207451 1098318.2665 
-26509.294766 -172008.83643 1086144.6577 -153364.77554 -361610.42 1027480.9729 -425398.3875 -582801.29517 830288.42113 
-780586.38384 -637593.14553 440635.76583 -1034750.0081 -368170.28724 61180.554626 -1095596.8381 93591.487383 -30136.387926 
-957874.07319 485763.65607 237720.27752 -631565.69691 569031.47654 698088.78318 -218259.23117 306802.85315 1033554.5062 
177609.21547 -65380.492105 1083596.0307 548949.15145 -299595.019 904929.6402 843950.64976 -271513.61885 651174.05933 
974276.82332 -25169.010471 510050.18622 897855.09964 269102.07793 575708.5128 646762.7966 430500.575 778695.79417 
351837.19368 397999.674 963227.30891 144321.86168 257274.40237 1059708.0174 40236.748218 87433.850374 1095781.1487 
-6939.2648415 -110903.38393 1094373.0105 -48602.908659 -374663.14015 1033085.325 -124239.54811 -717466.06016 824504.08562 
-244016.05397 -1014834.0707 347228.99422 -354444.18029 -993020.35554 -313496.24645 -398171.11537 -615094.35014 -820438.11669 
-884950.20667 -97245.733333 -646069.96453 -850069.4515 411344.24608 -564072.5475 -731320.00291 803545.47927 -171714.05326 
-513024.87809 888671.56925 396318.45336 -270916.04531 645587.10662 848423.11623 -83647.381661 288698.04102 1058138.2503 
74387.45074 -39690.897791 1096763.9399 270353.14415 -310566.81231 1020028.1528 541075.53194 -481789.83885 827717.23427 
830678.55146 -462967.21628 552842.20243 1023614.5917 -231134.94091 329832.9984 1054289.7357 106120.03955 295316.25477 
914879.03497 383439.77554 475363.32412 638698.26664 462266.02634 767055.82918 310692.66159 318336.25195 1006047.7626 
2799.8454876 60381.764376 1098337.9277 -289329.9583 -173372.50863 1047010.0995 -571892.7028 -276383.45774 898081.80071 
-789465.10389 -201644.69153 738975.14716 -871216.3064 1493.7510002 671550.38245 -789037.99935 212584.07862 736360.67596 
-578696.39484 313913.7709 881231.31302 -334143.46599 260165.19262 1015215.3548 -139990.35465 79565.89756 1088150.7104 
-5759.1606063 -200097.19077 1081632.0753 113281.74431 -570552.5279 933615.04878 262329.87513 -933189.29329 519943.0541 
419863.44513 -1007034.4122 -139987.07146 515515.84575 -670951.64978 -702899.20788 553513.44079 -134916.82928 -940967.75717 
559769.85128 424250.99401 -846562.93782 514149.47841 875590.94601 -423073.05411 375756.49295 1008386.7308 227954.51136 
190828.47195 766507.37188 765539.64179 53882.110962 425537.11251 1012923.928 -9652.2269343 179309.52093 1085244.18 
-4271.383419 40444.779944 1099247.9134 57384.493007 -29443.21742 1098107.5161 141809.2789 -59486.734723 1089197.6206 
195725.00129 -70553.783121 1080145.3085 169098.85208 -92917.911226 1082945.9082 30806.584357 -160292.79553 1087822.2162 
-228082.27056 -264293.54749 1043133.452 -555847.84876 -307441.46178 898060.64194 -809509.07688 -187345.01354 720830.70159 
-872677.62139 45462.156083 668106.99854 -727104.41779 217263.85275 796313.74716 -429147.69521 171787.63755 998158.93688 
-68564.850325 -111146.18718 1092220.3928 319517.42686 -487851.71937 932689.29116 709066.95809 -686122.28321 486271.7979 
977653.45823 -503892.39786 -16916.470879 1066441.727 -44602.713224 -265918.48554 991927.97462 453789.40059 -141965.04173 
756806.76722 747187.33514 280988.61773 441603.2787 692925.94335 731327.68393 206754.26998 439659.60758 986890.11613 
85251.738119 182442.12798 1081409.7332 18234.400368 -42194.545414 1099039.1836 -61007.882003 -275938.48698 1063078.5435 
-207620.0958 -554120.66351 927277.83651 -443153.22666 -813256.23007 593489.27703 -694418.41502 -850496.64579 66622.22142 
-844616.44097 -568956.68559 -415826.11458 -1096631.196 -84380.201936 16733.245482 -1053836.5421 308239.6905 66459.277986 
-865880.43164 580382.45199 351293.73397 -576028.94633 602677.36849 717614.55009 -294209.61144 399325.70189 981824.67291 
-84573.67242 97715.757371 1092382.2246 89273.297048 -234913.19605 1070908.9918 299917.98655 -570433.71606 891434.00032 
577729.19623 -792117.55522 498777.25943 837238.8035 -713425.03534 -7476.9555437 980434.74905 -340256.42747 -364654.99644 
1006073.2373 151849.46781 -418041.12271 918813.13878 585566.30884 -151309.332 697688.38293 780417.51345 337904.46138 
389657.42623 647458.47439 799352.62189 108509.92068 343978.01742 1039184.6422 -114143.71893 77971.20092 1091279.8464 
-295208.95956 -63753.922155 1057727.3314 -421031.55453 -76944.904836 1013317.2809 -456520.83247 -4729.7251998 1000782.8732 
-389958.4096 84023.968265 1025120.6815 -258042.75417 127003.75143 1061736.3063 -126615.82177 92034.909159 1088805.772 
-41539.590198 -34200.370347 1098683.2105 -7267.2149556 -272689.76564 1065639.4697 -6229.675857 -634448.41369 898574.64993 
-19564.882441 -1005916.0238 444691.09328 -30073.033112 -1067211.4993 -264868.32296 -26960.100711 -703454.99094 -845236.19699 
-14100.990618 -153090.27974 -1089203.6211 1401.821835 420475.23073 -1016463.7796 13125.985704 912291.96365 -614451.85455 
14221.25197 1097702.2993 69623.402636 6673.1310665 859047.26669 687017.65837 7809.3027552 475037.45491 992108.07436 
39054.279551 171701.4606 1085814.612 119440.41475 -23088.705307 1093252.4407 251559.56784 -129709.00752 1062964.4195 
401180.34404 -152331.39614 1012842.2766 501427.874 -100147.82675 973930.43898 493623.18099 -18568.047326 982848.60625 
357646.69116 27943.013758 1039859.6214 114459.34362 9454.0675327 1093987.9703 -169019.95689 -31715.089837 1086474.3012 
-388010.58931 -25988.114204 1028966.6664 -464985.11154 24091.06619 996598.44801 -391476.4869 30394.65011 1027532.153 
-214301.96746 -109087.71385 1073393.9339 13862.268265 -435172.68174 1010164.6275 276799.06967 -838702.71946 655713.36985 
520095.49334 -968880.45011 -27773.210096 634404.7953 -623073.57234 -647541.41115 640202.76073 -33170.830067 -893890.44138 
588556.46749 574149.67589 -730721.17408 466347.90547 980530.59873 -176293.43727 285187.3294 934493.10106 505362.07932 
151729.87425 587130.13149 917745.201 95514.417165 258178.73019 1064997.9997 66153.877431 27493.833581 1097664.6818 
1378.2016249 -151415.5158 1089528.0823 -151162.0433 -334697.85112 1036883.4964 -415097.94389 -516443.51708 878054.54878 
-736524.76344 -584382.78353 570988.64712 -988678.24493 -428433.03645 221270.10933 -885097.77903 -41577.941105 651822.97931 
-860654.73246 181804.74757 660469.88217 -690713.92897 327493.12149 790988.32084 -446873.93242 319606.33516 952971.91934 
-223950.84184 170444.42922 1063388.319 -63715.758877 -74684.763113 1095610.555 59094.719409 -403474.71372 1021624.1821 
195136.07571 -784287.9564 746199.91517 361971.62403 -1022538.8952 182731.36361 496028.80612 -865026.07397 -464419.33082 