# OOMMF OVF 2.0
#
# Segment count: 1
#
# Begin: Segment
# Begin: Header
#
# Title: Field
# Desc: File generated by Field class
# meshunit: m
# meshtype: rectangular
# xbase: -1.575e-07
# ybase: -1.575e-07
# zbase: 2.5e-09
# xnodes: 64
# ynodes: 64
# znodes: 4
# xstepsize: 5e-09
# ystepsize: 5e-09
# zstepsize: 5e-09
# xmin: -1.6e-07
# ymin: -1.6e-07
# zmin: 0.0
# xmax: 1.6e-07
# ymax: 1.6e-07
# zmax: 2e-08
# valuedim: 3
# valuelabels: field_x field_y field_z
# valueunits: None None None
#
# End: Header
#
# Begin: Data Text
 -462736.1799096536 69994.84312650982 995477.74949434
 -353083.3860845697 123222.36791233126 1034479.7583892749
 -210558.48052810985 77980.38044162716 1076839.9075739498
 -83632.28410885713 -87760.1555534228 1093299.4997492565
 21021.2320503039 -383275.36903754895 1030853.0929731055
 130406.72386304606 -773666.1087672403 770996.0042154979
 257851.07221702673 -1050522.542083986 199787.9203804107
 355925.7967178212 -920308.247661722 -486157.9542870761
 394983.04293802794 -453347.0070127273 -921121.5375964337
 402728.3272978821 117301.13807099823 -1016882.6566517389
 389901.2706863324 665281.2624558765 -784460.2226641572
 330050.44907157833 1025766.405239801 -221065.56255795647
 209472.336198907 975107.921090675 463989.09749432025
 88362.85844786573 622148.9032296186 902841.4852326546
 10861.148464266176 278866.70143160893 1064009.115697178
 -19446.204656916994 63119.8608878084 1098015.3588570359
 194.65830388251155 -37172.08778639367 1099371.7287604522
 66913.47101964778 -57369.76035498776 1096463.085558704
 152267.0669366938 -29755.869671234395 1089003.823935713
 208084.18290754914 9399.934671324878 1080098.4279462094
 198684.4556685282 13003.601008476688 1081829.6508399616
 118249.2204420609 -70880.10563174379 1091326.318060037
 -27693.573888297713 -281026.38221294613 1063135.5691846625
 -248944.83957288618 -597039.6212634451 889702.2858752427
 -538371.5838978327 -844388.4892914192 455152.8499344966
 -788433.8988251796 -756944.4919290495 -124125.03100341755
 -908600.5665627703 -337405.4070485034 -520194.7728843943
 -920704.9944484261 206256.564196845 -565473.7331861104
 -832075.6438141192 675920.5280646199 -246539.1707460793
 -614489.8334298389 853497.3683516014 322404.22892428044
 -327482.3426545048 641263.3811498593 831586.7911684067
 -80588.33290515 232738.5104937627 1072071.9688214564
 142949.17039279328 -186583.81953454288 1074593.8828096471
 420604.72451054165 -531610.7133468267 866303.4775263745
 748627.1249992899 -660179.2281713621 462299.48562199646
 999270.3977130572 -457965.2843067005 41550.81977856965
 1089196.5496901204 -25365.128969758323 -151682.18872196123
 1014035.9521628451 426016.59895121446 -15522.407649352132
 778932.2813408639 677202.2360640125 380344.0975682667
 455301.38397821056 605156.2265695626 797801.0975121649
 178897.9123447267 335011.92225046805 1032357.7620712431
 -16368.963590103698 68912.52974028088 1097717.2314743814
 -172203.57112640076 -99827.83492341336 1081841.1775606521
 -308590.55721170857 -147970.13678749383 1045407.4357009605
 -402581.36587863485 -87708.32497485372 1019919.3564088282
 -420196.3423511061 32450.973038347205 1016061.9903448886
 -356002.77920595126 138427.26588798102 1031552.1863950546
 -243539.79710273226 166131.9984647901 1059758.711364646
 -127200.59979585101 85358.18948635187 1089281.4084979086
 -26016.673326242075 -111640.85013264466 1094010.7190017365
 77813.33360440667 -425364.84375132766 1011439.4864814098
 220397.56884050477 -802296.5896145614 719545.0603972202
 401604.51310631697 -1014928.7025601516 136504.73901006294
 541210.3275409812 -816807.5585570274 -499916.7867226425
 602966.806434366 -325061.2358558963 -860677.7697153443
 618454.7955324608 243358.56020604138 -876521.69229138
 586091.165921512 750874.3875880736 -550167.97370712
 461341.67546882085 996151.9680023765 69606.8611604745
 255730.5141534821 822738.6561578269 683888.1544480858
 59785.2885286412 441714.9820195955 1005640.887163492
 -107672.60363025578 120744.18464030598 1088038.3505662978
 -268657.15836844605 -57161.67617436569 1065155.3285950029
 -410254.01672100776 -94264.12534670065 1016270.5921342508
 -486232.63473678177 -28609.865493439673 986285.6079824823
 -92754.5132523087 21031.324917596587 1095880.597347876
 -52889.19191104853 42744.5167424402 1097896.0058527638
 -19756.13383571963 452.48574279068157 1099822.4813271086
 -8123.6953276856875 -144562.39309896342 1090429.1449130126
 -21629.356739416628 -423795.31631621177 1014854.521986024
 -60037.82663654408 -810511.437235615 741260.1901377268
 -115210.64229699441 -1083958.3858204582 147515.17112155247
 -157117.83608702547 -938455.0845397256 -551920.3202318858
 -171262.92189376833 -459426.0183068307 -984681.0373350047
 -171346.8275859682 115728.67874784993 -1080392.1221443175
 -163326.22744050383 671868.2539916809 -855521.8247994747
 -137658.08489183264 1051515.5116026287 -292173.5452140984
 -89072.75981200377 1013538.9434940552 418096.7035034214
 -38023.84398877642 648574.1711851992 887640.5419761703
 12850.976754227877 275002.21341064986 1064992.3168810683
 89828.82912199185 15703.840187023805 1096213.5607909404
 217629.1217396495 -130974.53229767892 1070272.5060750805
 386413.60441966186 -172454.90953944027 1015354.0419455416
 535390.4221711734 -113518.34384618576 954185.8736419189
 590409.0499504561 4923.502490010996 928112.5539824525
 519099.5014617009 100806.5180949193 964558.8387920108
 342191.62469863374 92442.62297510465 1041325.7191885698
 100931.79295364524 -54537.984161203174 1094001.0884157268
 -190013.67983491803 -300400.33043229295 1040987.2443751472
 -533417.3007336336 -513454.4442574176 813529.6656854938
 -860987.7530834523 -511285.6862819162 455287.86063713394
 -1059343.3319501588 -243861.0200798297 168295.89400327258
 -1081701.9377433502 151301.62042162023 130494.20500571436
 -926760.0473736419 469131.6433955133 361982.4799034207
 -634044.948793096 539719.1896433445 718811.65769671
 -321504.47991712525 342207.6272887328 994750.6266490285
 -79099.43579946044 -11797.87695233814 1097088.915884043
 123933.52222386347 -439463.5948386345 1000755.8298010017
 356364.9948058967 -834464.181830258 621830.7806142693
 593725.0523990294 -925794.015540142 -19899.822708493874
 728196.8328408945 -585606.5781096184 -580339.8214108992
 758280.5747161923 -23746.36020322127 -796521.6132567778
 717661.5189548499 549896.5932618603 -626558.6013537899
 584468.078419691 926900.7065676517 -96188.07344355289
 362237.9034446268 880921.1156806902 550237.8478948257
 169102.53088292884 531811.1573990406 947935.2440514494
 66484.0707747784 192384.44931508313 1081003.2802887077
 34424.04823751097 -16574.935089614304 1099336.2799570097
 47071.5595885932 -94240.45366800991 1094944.2931813223
 79458.77994181111 -67624.20163398079 1095040.3050315205
 102075.59625243417 18891.878400807214 1095090.7129458268
 96081.5119711718 101658.238561334 1091070.09196932
 67737.79470919212 121097.93268816097 1091213.4905079703
 37143.549624846215 41743.3944083223 1098579.9223290668
 16806.59700857041 -156168.0334308727 1088728.195479168
 6631.8168550494665 -484037.1785156627 987757.0697392138
 2291.687766521042 -885490.7863608793 652610.7687107015
 2626.7346765828393 -1099996.8314144276 266.7267477865948
 10067.95865726491 -867461.0221374631 -676320.9380765195
 24263.72957012918 -349317.87973024324 -1042779.118667091
 41716.13098141002 234536.833720103 -1073895.8227148901
 55651.26691492428 778955.9797121034 -774680.9137712901
 53851.32064742997 1089817.3883188018 -139277.04542570474
 29595.81405577986 948790.0635594634 555807.0736156614
 -5418.0325022972065 556626.0167642183 948756.0921464508
 -43983.119826587674 224028.63163499345 1076046.7728579796
 -83345.85254703432 35404.43667208375 1096266.3885785884
 -112696.57574144774 -31751.076894541926 1093751.0461399292
 -117251.55690621474 -20389.30645125403 1093543.0254843682
 262968.24550093606 -904.7250908506387 1068104.3410316568
 250498.16153870782 44693.75408853252 1070165.005693609
 186838.81956394674 30541.55867540564 1083585.9304631208
 88246.87344346903 -86881.57252514547 1093006.8991927775
 -38939.78779990358 -333585.69551294774 1047475.1914366476
 -212244.17176301157 -681976.8007855141 836576.389066168
 -433815.13487528695 -949837.3607962932 345851.72659489315
 -619894.87445971 -862405.5580656087 -286333.71795184433
 -704432.1615273127 -438957.66559412243 -721866.675794164
 -718393.6672402931 109379.10287036149 -825800.6725138449
 -679202.0754311929 631140.0856889953 -591900.9486108702
 -554544.0650410149 948632.4518238619 -50767.620334566884
 -345989.8512893481 876449.770815964 567562.1746041744
 -147165.45435284553 528345.0494600546 953516.5639652896
 10218.613654711848 157983.14564873264 1088548.0722622715
 178957.2732861955 -139895.95354850794 1076291.5109387063
 410489.35682986764 -341033.4693142632 961870.3970581897
 686384.9206337999 -390024.80547870137 766000.255768778
 906029.2672741921 -248164.0763985262 572298.4868299551
 977553.5136179179 18511.970378727056 504030.19251425826
 873724.0880450039 265081.217481735 613464.0707558412
 623538.7351670152 355097.2286782297 833729.8147069949
 302494.7679575494 246749.64526475192 1028402.4153608484
 -20482.067978644038 23284.28574601626 1099562.7889887034
 -332779.7161333429 -176060.0161187463 1033566.8973290883
 -614871.6001373439 -234823.76420442798 881357.3140953709
 -797873.6681203296 -122018.6131463375 747334.6424233624
 -820653.6768190098 81859.86700387315 727891.8222493974
 -679738.4070994498 240039.40900048582 830865.0793243151
 -443994.27647108986 250338.75658292876 974781.816312464
 -220664.25647548903 97640.45836080528 1073207.1686329774
 -68275.46842309083 -191740.2474580311 1081006.0767249835
 28344.63629694742 -600131.4687116154 921433.0153924554
 106973.92456991902 -1001403.9901077476 442432.62544526684
 170095.45331323595 -1042351.0434362476 -307525.3469383141
 194265.70863178602 -620897.1821993579 -886987.8937092025
 191097.22165895303 -13642.407829913138 -1083187.7660788232
 174280.39815581997 598963.5253770036 -906018.2327561631
 139525.7720124589 1037497.087386289 -337834.8007670238
 89761.60571875624 1011474.7422282082 422920.4416591493
 65641.78983504619 603812.698521933 917115.7945052049
 101044.86924171659 189278.7153457468 1078871.402122138
 211483.84163410138 -82274.50714059363 1076338.9290564822
 386733.0368207275 -191670.50890311552 1011780.5959041907
 558391.1604958848 -140541.3863558801 937255.2643763737
 629324.1672092938 20388.050554857706 901961.9836561304
 555161.4043961366 179944.66481636278 932424.6525446634
 381699.66057276475 231825.35528917468 1005267.3145803976
 199860.39199192688 139625.06691172515 1072641.9087480826
 58791.50366673373 -78963.07063652608 1095585.8672747908
 -61962.05287471433 -406344.3251243452 1020316.1242687444
 -210011.34465147028 -790746.7433663704 735265.1378741963
 -390203.2381868376 -1016428.542934915 156889.92961854386
 -518822.30513020203 -836626.3025942078 -490795.1156103008
 -557441.6441783499 -356585.212683201 -878695.5100781011
 -545413.8124349414 212204.13685622383 -931393.137996135
 -497263.3423540807 740466.9474354028 -643768.4895259667
 -387150.9809649148 1028926.5836377011 -37738.61976216299
 -227817.39667581982 890372.2823846906 604430.6680943058
 -95469.20187130934 521409.26440880407 963855.8037812115
 -5781.864192199676 202947.72681208566 1081100.7308425382
 69966.54174695005 13414.36637213204 1097690.6384819024
 149179.70819521684 -61765.78758365347 1088085.6593793344
 222410.40713948314 -53350.980902224255 1075958.7741325502
 659277.9933371032 -12792.355518391008 880448.114962883
 606740.5390964814 117976.90766893708 909916.1321098701
 451265.69549395225 164632.2673889456 989573.3871748646
 243969.82053673468 79580.0818122291 1069647.4826998063
 19889.520405137217 -134772.79845818836 1091531.3553782145
 -236320.6589326515 -428580.7021478958 985124.9301017887
 -547687.1706008945 -670264.711842463 678810.7094160542
 -847536.1028987784 -663580.0125819393 226592.41201969766
 -1029431.3304783978 -361517.5600239894 -139914.93710028625
 -1070376.3830033748 90867.55038113866 -236722.38380927182
 -975280.6814281077 508056.8268408181 -26567.896671825085
 -741473.2362767751 709550.6826427116 395923.3115724663
 -436054.91686480487 606299.5392189136 807624.2803562564
 -176448.63793127905 309974.7725448053 1040567.8827246173
 22313.507754185594 -35548.53217639217 1099198.985276009
 230773.31362744072 -376307.2440735912 1007539.843269312
 508781.34471965267 -642233.0154673439 733947.0669666746
 812090.5181047657 -675815.3866861858 306239.37291363167
 1018959.2613000001 -408251.3127297034 -71083.67931833585
 1081987.6176848784 31106.502924172364 -195793.7196450125
 1002784.9338142951 451996.85402647476 -11010.016586254884
 774817.2786107033 670701.0866705191 399772.7318180775
 445469.1821825102 590193.9505129777 814388.3032703324
 130333.82744369167 329112.1487275446 1041488.4958480418
 -120665.42610017434 87823.23112272196 1089828.855838947
 -311391.92997910804 -34299.384210482094 1054447.0675129541
 -423651.8770959606 -34474.5063793656 1014559.3109537602
 -429535.493294316 31574.742234278518 1012177.0080639294
 -335871.6305752485 87322.74187485343 1043822.2964308538
 -199107.43284496802 75568.11130521428 1079187.514169641
 -90892.01207906533 -30093.571300976597 1095825.2685107111
 -52196.08486775614 -251432.99558657262 1069606.0103864605
 -92036.71428073898 -604326.2056849882 914504.8279516031
 -202195.64690188615 -976408.3569750056 464482.12108034635
 -326069.6339291792 -1018435.8110206779 -257812.1266735642
 -390092.6898893629 -607382.4927456207 -830008.5546553105
 -408931.06526762387 -3699.4246567392597 -1021157.0389104193
 -404947.0681125813 601824.1909294953 -826937.431272211
 -350828.8212386838 1013899.648663667 -242748.10118303358
 -217625.2205396067 952621.1072974218 505126.01330412785
 -56355.594203522596 512153.20712248055 971865.803203367
 119534.54128217083 40390.90813901908 1092739.7073320649
 364884.7344013598 -310771.44283498725 990091.02658246
 683360.5899933771 -451264.87319369864 734423.800176287
 953566.5561243529 -309205.2795435282 452882.89672226564
 1047766.9575798252 33476.060298565106 333262.29308279575
 928886.0903009432 369552.3389032673 458913.6084891714
 647419.6902740279 499549.7805945282 735729.4076992169
 340379.0973837322 373477.67170326493 977065.2479764818
 109348.46253427672 101842.32439452685 1089803.2183395817
 -75912.12181312207 -222750.0581092121 1074532.3454294768
 -297663.84829165303 -554324.2057750159 902286.4890444173
 -588539.180690659 -772261.617968851 516946.4442319924
 -853505.1014165686 -693825.6779140936 11617.681478743409
 -988987.6665651838 -322811.7725734751 -357345.7077815877
 -997997.7802116615 174083.00598468154 -428597.17418566055
 -893031.6254481615 619186.7394402045 -170593.95549322118
 -663027.5618531472 815549.3138860445 324459.1944190718
 -371553.4116268876 669342.5687876778 789891.503889701
 -129927.60239689419 354869.09175955114 1033047.3105570461
 56280.26994422767 68291.37633677945 1096434.5940971735
 236561.13165720145 -120632.71598937555 1067467.3666309856
 427699.4169097956 -191723.39732502174 995145.8926675891
 589256.2766407701 -142886.69443458234 917801.957392233
 1019150.7680611686 -25283.96817831045 413149.40749502304
 947880.7469446542 253865.8625196951 497065.60273144627
 731573.7899875991 401100.8785512694 716880.6560569061
 436574.6521056484 347762.2858755756 947873.3911559216
 141488.44012103262 136266.31900693642 1082318.1194161063
 -139171.9215222303 -129377.88965622861 1083463.2148476066
 -436801.8829130122 -338718.2167878214 951038.4244076185
 -732621.6732219708 -383066.7695062829 725620.6543542296
 -941122.6862351974 -223578.9200662634 523737.1057653354
 -993299.6645535602 57441.97159147616 469101.47761168797
 -873665.200316381 311137.7695775364 591525.490658225
 -625139.048356673 408525.2242357828 807656.0600792991
 -350039.42482326477 315677.5397690202 993891.3884096071
 -134128.4164245575 87622.08925338037 1088270.1582705986
 26574.55211204121 -229118.15972104695 1075545.7508009996
 191936.76089598573 -608688.982974999 895911.8270352385
 404686.92772672017 -919821.2823260206 447389.42668241897
 607736.3463308525 -898382.001710756 -183211.11415686976
 717007.1779207821 -510941.4823460835 -659423.6183426124
 748779.7266235752 31476.083382437937 -805194.4964866724
 724068.5478445685 562131.6714046585 -608056.5121977256
 609298.6448558004 910768.4189020001 -96208.35986355958
 388815.5013810242 886617.3082449154 522237.73763140047
 159616.7058944686 577187.8701048396 922700.7476984275
 -3857.822826118921 265376.3855510371 1067501.986506306
 -100736.83881174008 75183.5019048884 1092794.3678238534
 -132477.95873553766 -2366.5754444073473 1091990.837768308
 -97635.50563286035 -12770.118859358401 1095583.9685319122
 -18309.715440780463 -431.7976435280512 1099847.5202823677
 55833.94936170292 -1411.8066562271117 1098581.1653676939
 76100.9761545599 -51602.95264796828 1096150.4352534532
 16788.603535942657 -194386.8981727946 1082558.024592711
 -136862.09603333427 -459047.1985660239 990224.4372656373
 -394437.03803375724 -768959.921648674 680529.2513369438
 -685899.2396189028 -852135.6852248539 115788.63094699687
 -867729.0890369378 -539232.6210774089 -407767.59116574447
 -920137.0561252474 777.2851631147726 -602782.8744854478
 -871236.7657260885 539789.0708333432 -399467.466830555
 -693985.9718329312 841753.8541362188 140832.95049782758
 -405190.12549833563 713573.0819486673 732553.3556792457
 -127578.9535803051 279835.74664720474 1056132.361733962
 118634.77398105976 -221872.5342743028 1070840.0295735875
 410455.35447877966 -651011.6638258984 785945.4278398309
 734586.4327262486 -784306.004809415 235046.5138529362
 944898.4274431537 -487008.0325790311 -282825.278253124
 994101.2920624847 54858.71391756868 -467710.53294426564
 901175.9435951674 581769.685568597 -243774.38675704924
 660641.2857824385 831505.6379569989 286620.76959887356
 358622.7388528439 672456.7545009119 793216.0137716492
 130915.17512677934 320240.1726057338 1044177.8817667873
 -37682.30029717723 -13735.020736915523 1099268.5720285422
 -233325.44349841194 -280702.09245770995 1037673.1531200625
 -507256.97333134693 -448984.205677076 866662.3022026782
 -807810.3541998193 -438920.6734318856 603979.3656091759
 -1013242.5365598407 -219783.87995817602 367470.5542166741
 -1051427.8216311333 115963.85122022024 301748.1087102026
 -915611.4792334548 406424.9937217186 454394.4801317748
 -646107.6125444089 502591.9578617668 734810.3679894834
 -342314.6803280727 371533.1937701855 977130.3626225188
 -83717.09867626944 116283.10367614274 1090628.1158986648
 148905.86298682424 -153998.22824254842 1078940.0306163016
 409881.214571023 -364083.09547328297 953646.1028769402
 696484.7835562227 -429291.54388095473 735267.1056336927
 926323.1802541049 -297893.1955561755 513015.60382239026
 1062269.1832706505 -40454.075000236495 -282750.15488834045
 1014801.2313608119 397006.1495325432 -150215.10597115147
 835894.074459022 677174.5248340904 229599.12717608278
 544636.6406101207 672991.5454801135 678567.1001582755
 239137.09105225504 433219.1750569993 982412.6414323051
 -16531.745390623157 142182.94607789055 1090646.923270291
 -240161.46389911135 -70748.94592567488 1071128.8708219205
 -440912.96680417925 -152710.2198329401 996130.1844952354
 -579368.4142608935 -103507.5239132232 929310.7300844921
 -606245.1674033939 22832.40587723969 917575.8705643299
 -511744.74302248156 140695.05730175273 963494.7944019786
 -343492.25975746365 179610.8427495963 1029443.0594518043
 -178193.53729544047 114072.46138109446 1079460.2988626296
 -63426.69458949655 -56632.860337723614 1096708.6092228047
 4335.806040911961 -343528.26231889456 1044973.4607989509
 54931.41649725628 -735738.7815029575 815886.6250124149
 111529.97604603648 -1059989.7194845234 271997.90262112714
 162601.31518181594 -993381.4978710538 -443569.62473619095
 189900.40710871626 -548654.2437789284 -934299.9283759553
 203165.65478523288 23452.14510314249 -1080820.851763024
 207639.66374830515 590319.5601755329 -904659.3761812544
 187984.28047200816 1012217.7846062043 -387397.8146845041
 127854.4913246291 1043049.8068774755 325115.8707614588
 57591.985569361466 710940.2256438831 837405.0147686026
 16369.347209177318 343561.6039776401 1044843.2747279644
 19849.44280398131 94589.05680006635 1095745.8236078501
 78094.18092827813 -40313.7754423435 1096483.5148850738
 185798.62380862585 -90863.61647753305 1080380.8007325216
 302569.50699636113 -76946.53854016228 1054765.8145970919
 365778.9926257607 -27564.533003228706 1037037.0895363375
 332292.63548901514 2960.196949186792 1048605.1886357358
 196014.27909883126 -48811.88297939513 1081293.5782984062
 -34565.40632644037 -215406.4593979144 1078149.0110068936
 -356900.83631709765 -441742.9850300346 942064.1847628595
 -723019.1370690614 -547876.1194163893 622153.5865083063
 -998615.5098618872 -378140.41979376477 264153.14948241395
 -1094736.7407653113 1290.5009574677515 107470.00989030661
 -1000235.9313390475 380368.5304904049 254652.43503818713
 -737816.2297239024 540915.7058712072 610767.8857781076
 -409454.101961717 388244.9726022106 944252.7096258887
 -142659.39728871203 12605.650366416205 1090637.1504510844
 54935.67290772645 -475076.3618231388 990598.062929191
 243243.39498881623 -930159.5620351178 534449.0994930693
 408347.81332958105 -996139.9389522267 -225737.20422917395
 476443.5932664018 -559660.6098172697 -818401.7987849007
 472857.5799301077 78785.36672918448 -990049.7841482466
 428598.47580624814 698456.7281201412 -733799.3904878009
 326144.7173284917 1047772.4663823234 -76174.02477105532
 187295.9152108678 882533.6669738851 629328.6635796523
 88654.99725504863 467400.96702383313 991804.7325390683
 20861.77789913755 125770.74768328379 1092587.0698713558
 -74392.1003319193 -85054.86495487203 1094180.737061165
 -239508.82557949764 -190076.22552806383 1056648.7358429644
 -456788.2904672809 -193005.50037453897 981882.5461923401
 -639665.9171446626 -91036.19139706738 890247.1152996757
 -701089.6335843612 72837.67211600138 844492.7466836338
 -617715.0704999692 208799.7276405999 885906.7475837563
 -431596.35711880896 230952.68055161327 985081.4402209586
 -215751.5063176928 110937.90791391542 1072913.8213805107
 -9337.281720451769 -121727.40166377061 1093204.1231418129
 213239.2697526479 -416037.46059197735 995711.7279712718
 491482.48923951323 -672841.053892027 718143.3554440216
 785247.8949869624 -717281.0238757626 280880.1812273013
 988208.2713936265 -468468.24698213994 -118245.14331972183
 702852.8407632076 -55062.43220154153 -844373.1478387623
 695291.5635335622 470026.5152011199 -711086.9965671893
 618648.0529625007 868250.729828967 -270952.49900521955
 439817.7256901264 946606.8568859239 347125.0879226634
 219638.12712806775 687227.849444442 830347.5031934773
 42178.02069523733 343355.4761193363 1044187.7377124749
 -86990.90655038352 93194.82908300924 1092587.436322481
 -177802.07344457766 -31024.173663450012 1085091.665863907
 -218326.13396451046 -53423.9375176201 1076791.3363917004
 -194099.78014564243 -15739.642894883185 1082625.299440649
 -117244.44167817231 36240.72604539929 1093133.2721453847
 -29977.62973897578 62381.80513323287 1097820.500857746
 24131.08477428953 30608.309927005048 1099309.247714686
 27427.614710791426 -91352.89226108868 1095856.9135734877
 -16788.785722536224 -338121.1846706922 1046609.8610040182
 -105479.49096580195 -705609.8731028533 837250.729450486
 -230203.93473963314 -1025859.1007693175 323448.997214643
 -335605.2308883411 -977884.5294181737 -375647.4093148788
 -375830.1181540669 -551519.4808302122 -874401.5007724277
 -376377.2808889391 13682.896588146674 -1033514.8381961464
 -358136.668563359 577617.1228899596 -864925.7690545847
 -306590.62507730274 994943.4769053948 -355091.06772504566
 -205986.8272666868 1024026.2478343504 344876.3122322347
 -97608.95774888028 691026.9824366147 850267.1350297644
 -7105.990657366701 305843.6031787691 1056602.6667065558
 97341.13129169337 14957.31194941436 1095582.485702515
 254774.0152979162 -172635.92480089542 1056071.5120658812
 465044.8264582315 -249618.0387848376 965103.1779543806
 661827.0818809737 -196680.77576980204 856330.3020047256
 754043.1240557255 -43702.07891736039 799693.125744234
 694141.1709385079 113579.6190177274 845735.0087065721
 493314.2813995155 169443.86429707715 968467.7571397787
 199636.3942474772 80452.75862177237 1078736.6053499866
 -137248.5314548515 -93268.30278228562 1087411.5432114922
 -472858.11854297266 -213991.70611844276 969851.9213985805
 -731749.3511771256 -173008.10461400327 802876.7544210793
 -834635.3490349001 8329.37028461066 716459.6679032618
 -754635.4063659307 197864.97581529684 775483.6263935807
 -539345.6471135408 255213.73023262832 924106.1761726426
 -301013.4215547495 125899.39697167539 1050495.2460083154
 -136995.41919327693 -166017.6994666708 1078735.5461761018
 -69697.74397542787 -589955.7548744832 925793.9467155823
 -79234.98605493625 -1010000.056553908 428511.0299000208
 -124864.13792632929 -1031653.1050414905 -360694.9097480665
 -161621.40844069756 -553320.1392614528 -936864.6347372344
 -186620.94593698136 102478.42364271393 -1079199.1453041884
 -198796.90468955628 731127.7577470918 -797453.4422382045
 -167201.42347938128 1082300.1450750246 -103296.07909814065
 -75932.63825795136 894231.3527700158 636069.5890940665
 26725.90734668779 460301.5026951959 998703.2855122893
 109538.45784992349 136762.06003790023 1085954.6331159745
 148034.83093043714 -17321.428288231768 1089855.796403108
 108830.21247418856 -52937.6668541558 1093322.271007438
 -14040.18417543796 -25582.09605820943 1099612.854412674
 -167607.68505929262 28995.558548393707 1086769.028585896
 -270029.287741789 86325.96136296695 1062841.4802577202
 -278904.58331573306 116014.30803355845 1057711.167444578
 -209133.08140795157 78900.31390575823 1077050.6463144566
 -100614.38505343397 -56319.978824740334 1093940.0374360105
 23883.703191199405 -303043.7569538519 1057163.2088249994
 177133.81264127983 -641255.0386585748 876022.5954929211
 374496.9355923434 -935985.5602967306 440094.3945882062
 561926.942663539 -928841.4938761779 -177458.70044232265
 666428.21986061 -571387.6021670614 -662864.719126908
 166724.9030419995 -70287.59211116105 -1085017.2630427827
 180247.65706793035 480294.4216495417 -973050.8982853128
 176283.61489634166 938619.8207553691 -545817.6611325778
 135316.97271924134 1083387.1268799242 134021.08119606943
 70748.7535403268 825843.2056263068 723171.9115074615
 19280.047165377317 443018.33060638735 1006659.345820636
 -3610.5677938983727 151604.68236055077 1089496.6654774866
 11809.442087878904 -16641.891203416475 1099810.703955343
 75221.51092379571 -87728.08866754666 1093912.9338082992
 176863.42952027073 -86239.614611583 1082257.8510549015
 274658.3309679498 -34755.79017061144 1064591.3940472736
 316739.9848009677 29740.94830187965 1052991.5754755058
 279010.14508177905 54094.798267074846 1062650.9736229903
 173254.28008931797 -15122.287080654374 1086164.9372283118
 19834.936557072022 -212515.51007900835 1079093.9408909848
 -185213.9723777127 -525747.9083744233 948306.3435810114
 -451915.300264786 -822309.3884844234 574090.4379947135
 -708048.9451396342 -841822.8931850803 -952.7833711696895
 -850298.7160871965 -507383.56723242585 -479117.9490720041
 -885019.2505075175 5714.329745678596 -653229.1119252646
 -839174.8083812855 520216.7450129589 -484933.16981451714
 -690516.4554632402 856200.5462912599 -10375.4163786796
 -443321.0104058965 834542.8832668869 563031.6667127047
 -203292.088008728 526611.5652566702 944114.7103456081
 -20964.701493957607 162016.2128976672 1087801.09765047
 156720.7961942883 -160465.90851592505 1076888.705597931
 395482.9329437103 -411587.2693774528 940313.3357751835
 694122.792359324 -512942.0398044345 681970.6833351128
 951354.208775714 -383368.4904263654 397433.98193026386
 1067542.2497494859 -72695.83756054511 255085.9858972599
 1010871.0231556754 261540.62341692598 346029.30056121526
 788015.6956706304 453323.0529275793 619297.5642299519
 452986.3379366087 419226.8677416678 910523.0425454869
 107436.45313933588 234044.1167368537 1069430.109898588
 -178807.4381589508 60053.61061908177 1083707.2777787575
 -376766.2800403156 -5819.539088127564 1033447.290958462
 -459063.53279913735 26875.777458319815 999268.915477704
 -417652.3288244218 82815.05196696884 1014252.5323583103
 -293667.44909969706 82969.35020737516 1056823.313645873
 -167720.41154497513 -12466.535595458481 1087066.901824093
 -112928.04709213397 -215974.9756503507 1072661.2074988016
 -172701.5171794028 -533992.7434527709 946058.1038729681
 -364043.7006846875 -873522.9521408101 560740.43556266
 -608696.9171841843 -911372.9028062514 -94273.51187357625
 -755699.3524783746 -498190.5314602364 -625079.7413347617
 -797390.7027276733 115150.07418077686 -748938.2668949617
 -749256.3021203366 679155.2527663335 -432854.63653847633
 -556817.1461457291 921548.2491804267 225174.3550909293
 -248016.9649341073 685656.1203577098 823628.1137266306
 42202.00285877758 275939.93123016175 1063990.669746404
 284383.04877772887 -3019.2518265587173 1062599.2498050674
 466441.7851566351 -82212.03758878418 992810.778514915
 536417.9512916045 -12022.23754371726 960266.2377364729
 460049.6150269649 106701.49685020678 993463.2063058333
 276230.79337503586 182455.63205874484 1049002.6173091477
 89177.13630842556 185841.256628377 1080513.9821837635
 -22356.98801469814 136058.53884407965 1091324.076108708
 -53512.4168039973 39533.265375418385 1097986.130229591
 -36510.19665651886 -125996.16588164837 1092150.1598787718
 -1793.242354327269 -391507.7040280062 1027968.142487197
 38213.2111738531 -753505.8587202369 800480.2754384778
 82781.28560591278 -1059532.0505852816 283794.1023629293
 122738.83410211021 -1015535.0900138952 -404504.21450675186
 148462.55129781133 -610322.6954636009 -903031.0505537392
 -394444.20456393214 -86852.09636166289 -1023166.8890476819
 -371416.4274832891 461221.07642500673 -926997.8187983551
 -325231.6971589037 918103.9247605474 -511184.43491798366