# ODT 1.0
# Table Start
# Title: mmArchive Data Table, Thu Jan 04 21:03:47 EST 2024
# Columns: {Oxs_CGEvolve:evolver:Max mxHxm} {Oxs_CGEvolve:evolver:Total energy} {Oxs_CGEvolve:evolver:Delta E} {Oxs_CGEvolve:evolver:Bracket count} {Oxs_CGEvolve:evolver:Line min count} {Oxs_CGEvolve:evolver:Conjugate cycle count} {Oxs_CGEvolve:evolver:Cycle count} {Oxs_CGEvolve:evolver:Cycle sub count} {Oxs_CGEvolve:evolver:Energy calc count} Oxs_UniformExchange:exchange:Energy {Oxs_UniformExchange:exchange:Max Spin Ang} {Oxs_UniformExchange:exchange:Stage Max Spin Ang} {Oxs_UniformExchange:exchange:Run Max Spin Ang} Oxs_DMI_T:dmi:Energy Oxs_FixedZeeman:zeeman:Energy Oxs_MinDriver::Iteration {Oxs_MinDriver::Stage iteration} Oxs_MinDriver::Stage Oxs_MinDriver::mx    Oxs_MinDriver::my    Oxs_MinDriver::mz   
# Units:                 A/m                                 J                                J                                 {}                                   {}                                        {}                                      {}                                   {}                                      {}                                     J                                      deg                                            deg                                              deg                                J                         J                          {}                           {}                         {}                 {}                   {}                   {}           
                  0.092779531181400005              -5.0286020076700003e-19               0                                 1195                                 636                                       334                                     1011                                 369                                     1832                                  2.3069192718899999e-20                     3.7906825076300001                             179.724324809                                    179.724324809                     -7.1173060180399995e-20     -4.5475633330600004e-19         1716                         1716                       0                   -1.17561697831e-09   -3.4083349080600002e-09  0.97511207086700002
# Table End
