# ODT 1.0
# Table Start
# Title: mmArchive Data Table, Sun Jan 14 22:49:33 EST 2024
# Columns: {Oxs_CGEvolve:evolver:Max mxHxm} {Oxs_CGEvolve:evolver:Total energy} {Oxs_CGEvolve:evolver:Delta E} {Oxs_CGEvolve:evolver:Bracket count} {Oxs_CGEvolve:evolver:Line min count} {Oxs_CGEvolve:evolver:Conjugate cycle count} {Oxs_CGEvolve:evolver:Cycle count} {Oxs_CGEvolve:evolver:Cycle sub count} {Oxs_CGEvolve:evolver:Energy calc count} Oxs_Demag:demag:Energy Oxs_ExchangePtwise:exchange:Energy {Oxs_ExchangePtwise:exchange:Max Spin Ang} {Oxs_ExchangePtwise:exchange:Stage Max Spin Ang} {Oxs_ExchangePtwise:exchange:Run Max Spin Ang} Oxs_UniaxialAnisotropy:uniaxialanisotropy:Energy Oxs_FixedZeeman:zeeman:Energy Oxs_MinDriver::Iteration {Oxs_MinDriver::Stage iteration} Oxs_MinDriver::Stage Oxs_MinDriver::mx    Oxs_MinDriver::my    Oxs_MinDriver::mz   
# Units:                 A/m                                 J                                J                                 {}                                   {}                                        {}                                      {}                                   {}                                      {}                              J                            J                                     deg                                           deg                                             deg                                              J                                       J                          {}                           {}                         {}                 {}                   {}                   {}           
                  0.098402074802299996               8.0967040485999999e-20               0                                 613                                  312                                       108                                     515                                  195                                     926                             1.02935096034e-19            3.7367526643199999e-23                    0.16848348495099999                           179.30944771599999                              179.30944771599999                              1.9270090278800001e-20                   -4.1275513353599997e-20         829                          829                        0                   -0.17016353523899999  0.13913618358099999  0.30988098375399997
# Table End
