# ODT 1.0
# Table Start
# Title: mmArchive Data Table, Thu Jan 04 13:38:11 EST 2024
# Columns: {Oxs_CGEvolve:evolver:Max mxHxm} {Oxs_CGEvolve:evolver:Total energy} {Oxs_CGEvolve:evolver:Delta E} {Oxs_CGEvolve:evolver:Bracket count} {Oxs_CGEvolve:evolver:Line min count} {Oxs_CGEvolve:evolver:Conjugate cycle count} {Oxs_CGEvolve:evolver:Cycle count} {Oxs_CGEvolve:evolver:Cycle sub count} {Oxs_CGEvolve:evolver:Energy calc count} Oxs_FixedZeeman:zeeman:Energy Oxs_MinDriver::Iteration {Oxs_MinDriver::Stage iteration} Oxs_MinDriver::Stage Oxs_MinDriver::mx    Oxs_MinDriver::my    Oxs_MinDriver::mz   
# Units:                 A/m                                 J                                J                                 {}                                   {}                                        {}                                      {}                                   {}                                      {}                                  J                          {}                           {}                         {}                 {}                   {}                   {}           
                  2.4458488474200001e-05              -1.00530964915e-19                -2.00021170987e-22                 13                                   0                                         9                                       9                                    0                                       14                                -1.00530964915e-19           13                           13                         0                   -1                    0                   -2.4458488474199999e-11
# Table End
