# ODT 1.0
# Table Start
# Title: mmArchive Data Table, Thu Jan 04 13:45:16 EST 2024
# Columns: {Oxs_CGEvolve:evolver:Max mxHxm} {Oxs_CGEvolve:evolver:Total energy} {Oxs_CGEvolve:evolver:Delta E} {Oxs_CGEvolve:evolver:Bracket count} {Oxs_CGEvolve:evolver:Line min count} {Oxs_CGEvolve:evolver:Conjugate cycle count} {Oxs_CGEvolve:evolver:Cycle count} {Oxs_CGEvolve:evolver:Cycle sub count} {Oxs_CGEvolve:evolver:Energy calc count} Oxs_UniaxialAnisotropy:uniaxialanisotropy:Energy Oxs_MinDriver::Iteration {Oxs_MinDriver::Stage iteration} Oxs_MinDriver::Stage Oxs_MinDriver::mx    Oxs_MinDriver::my    Oxs_MinDriver::mz   
# Units:                 A/m                                 J                                J                                 {}                                   {}                                        {}                                      {}                                   {}                                      {}                                           J                                    {}                           {}                         {}                 {}                   {}                   {}           
                  0.000194934341103                 1.6001664820899999e-39              -2.9433709638900002e-29               7                                    3                                         4                                       4                                    0                                       11                                           1.6001664820899999e-39                  9                            9                          0                    0                    0                    0                  
# Table End
