# ODT 1.0
# Table Start
# Title: mmArchive Data Table, Thu Jan 04 18:15:09 EST 2024
# Columns: {Oxs_CGEvolve:evolver:Max mxHxm} {Oxs_CGEvolve:evolver:Total energy} {Oxs_CGEvolve:evolver:Delta E} {Oxs_CGEvolve:evolver:Bracket count} {Oxs_CGEvolve:evolver:Line min count} {Oxs_CGEvolve:evolver:Conjugate cycle count} {Oxs_CGEvolve:evolver:Cycle count} {Oxs_CGEvolve:evolver:Cycle sub count} {Oxs_CGEvolve:evolver:Energy calc count} Oxs_UniformExchange:exchange:Energy {Oxs_UniformExchange:exchange:Max Spin Ang} {Oxs_UniformExchange:exchange:Stage Max Spin Ang} {Oxs_UniformExchange:exchange:Run Max Spin Ang} Oxs_DMI_T:dmi:Energy Oxs_FixedZeeman:zeeman:Energy Oxs_MinDriver::Iteration {Oxs_MinDriver::Stage iteration} Oxs_MinDriver::Stage Oxs_MinDriver::mx    Oxs_MinDriver::my    Oxs_MinDriver::mz   
# Units:                 A/m                                 J                                J                                 {}                                   {}                                        {}                                      {}                                   {}                                      {}                                     J                                      deg                                            deg                                              deg                                J                         J                          {}                           {}                         {}                 {}                   {}                   {}           
                  0.0809932891115                  -1.9954434001300001e-15               0                                 183                                  47                                        124                                     170                                  46                                      231                                   2.2440873963799999e-18                     2.9753934968300002                             179.80846445899999                               179.80846445899999                -9.8949064374000002e-18     -1.9877925810900001e-15         224                          224                        0                   -1.1216464236100001e-10  3.5941652995399999e-09  0.998633254804     
# Table End
