# ODT 1.0
# Table Start
# Title: mmArchive Data Table, Tue Jan 16 23:11:36 EST 2024
# Columns: {Oxs_CGEvolve:evolver:Max mxHxm} {Oxs_CGEvolve:evolver:Total energy} {Oxs_CGEvolve:evolver:Delta E} {Oxs_CGEvolve:evolver:Bracket count} {Oxs_CGEvolve:evolver:Line min count} {Oxs_CGEvolve:evolver:Conjugate cycle count} {Oxs_CGEvolve:evolver:Cycle count} {Oxs_CGEvolve:evolver:Cycle sub count} {Oxs_CGEvolve:evolver:Energy calc count} Oxs_Exchange6Ngbr:exchange:Energy {Oxs_Exchange6Ngbr:exchange:Max Spin Ang} {Oxs_Exchange6Ngbr:exchange:Stage Max Spin Ang} {Oxs_Exchange6Ngbr:exchange:Run Max Spin Ang} Oxs_UniaxialAnisotropy:uniaxialanisotropy:Energy Oxs_UZeeman:hysteresis:Energy Oxs_UZeeman:hysteresis:B Oxs_UZeeman:hysteresis:Bx Oxs_UZeeman:hysteresis:By Oxs_UZeeman:hysteresis:Bz Oxs_MinDriver::Iteration {Oxs_MinDriver::Stage iteration} Oxs_MinDriver::Stage Oxs_MinDriver::mx    Oxs_MinDriver::my    Oxs_MinDriver::mz   
# Units:                 A/m                                 J                                J                                 {}                                   {}                                        {}                                      {}                                   {}                                      {}                                    J                                    deg                                          deg                                            deg                                             J                                       J                          mT                       mT                        mT                        mT                        {}                           {}                         {}                 {}                   {}                   {}           
                  0.069603090799399997              -2.8142153227500002e-16              -1.7256332301699999e-30               39                                   5                                         30                                      35                                   5                                       45                                   0                                     0                                            0                                              0                                               1.28351808995e-17                     -2.94256713175e-16           1000                     0                         0                        -1000                      43                           43                         0                   -0.0037179426060300002  0.035150799679700001 -0.99518639466600001
                  0.088112614520999999              -2.80832435182e-16                -1.06496222205e-29                 43                                   8                                         31                                      39                                   3                                       53                                   0                                     0                                            0                                              0                                               1.28297512125e-17                     -2.9366218639400002e-16         997.99799799799996       0                         0                        -997.99799799799996        51                           7                          1                   -0.0037262701717400001  0.035216473880299998 -0.99516801285900003
                  0.088906906519100007              -2.8024334900099999e-16              -1.08961412534e-29                 47                                   11                                        32                                      43                                   3                                       61                                   0                                     0                                            0                                              0                                               1.2824301471399999e-17                   -2.9306765047200001e-16         995.99599599600003       0                         0                        -995.99599599600003        59                           7                          2                   -0.00373462024079     0.0352824103487     -0.995149526113     
                  0.089682928203699996              -2.7965427379399999e-16              -1.10440526731e-29                 51                                   14                                        33                                      47                                   3                                       69                                   0                                     0                                            0                                              0                                               1.2818831620600001e-17                   -2.92473105414e-16           993.99399399399999       0                         0                        -993.99399399399999        67                           7                          3                   -0.0037430131420000002  0.035348587709700001 -0.99513093381600004
                  0.0904287856871                  -2.7906520962399999e-16              -1.13398755126e-29                 55                                   17                                        34                                      51                                   3                                       77                                   0                                     0                                            0                                              0                                               1.28133415495e-17                     -2.9187855117399999e-16         991.99199199199995       0                         0                        -991.99199199199995        75                           7                          4                   -0.0037514492527800001  0.035415007265799998 -0.99511223516500003
                  0.091210289878700002              -2.78476156555e-16                -1.14877869323e-29                 59                                   20                                        35                                      55                                   3                                       85                                   0                                     0                                            0                                              0                                               1.28078311472e-17                     -2.9128398770200001e-16         989.98998999000003       0                         0                        -989.98998999000003        83                           7                          5                   -0.0037599289107800001  0.035481670296899998 -0.99509342935400003
                  0.092002026846800006              -2.7788711465000001e-16              -1.17343059652e-29                 63                                   23                                        36                                      59                                   3                                       93                                   0                                     0                                            0                                              0                                               1.28023003022e-17                     -2.9068941495199999e-16         987.98798798799999       0                         0                        -987.98798798799999        91                           7                          6                   -0.00376845247626     0.035548578101100001 -0.995074515567     
                  0.092794341353999998              -2.7729808397300002e-16              -1.19315211915e-29                 67                                   26                                        37                                      63                                   3                                       101                                  0                                     0                                            0                                              0                                               1.27967489021e-17                     -2.9009483287499998e-16         985.98598598599995       0                         0                        -985.98598598599995        99                           7                          7                   -0.0037770203099999999  0.035615731983799997 -0.99505549297999996
                  0.0935845035445                  -2.76709064589e-16                -1.2178040224300001e-29               71                                   29                                        38                                      67                                   3                                       109                                  0                                     0                                            0                                              0                                               1.2791176833799999e-17                   -2.89500241422e-16           983.98398398400002       0                         0                        -983.98398398400002        107                          7                          8                   -0.0037856327753200002  0.035683133258499998 -0.99503636076400004
                  0.094396107767799997              -2.7612005656199999e-16              -1.2424559257199999e-29               75                                   32                                        39                                      71                                   3                                       117                                  0                                     0                                            0                                              0                                               1.27855839832e-17                     -2.8890564054600001e-16         981.98198198199998       0                         0                        -981.98198198199998        115                          7                          9                   -0.0037942902340799998  0.035750783244600001 -0.99501711807799997
                  0.095211126004900004              -2.7553105995999999e-16              -1.26710782901e-29                 79                                   35                                        40                                      75                                   3                                       125                                  0                                     0                                            0                                              0                                               1.27799702356e-17                     -2.8831103019599999e-16         979.97997998000005       0                         0                        -979.97997998000005        123                          7                          10                  -0.00380299306065     0.035818683274999999 -0.99499776407600005
                  0.096041412459200004              -2.7494207484699999e-16              -1.2917597322999999e-29               83                                   38                                        41                                      79                                   3                                       133                                  0                                     0                                            0                                              0                                               1.27743354751e-17                     -2.8771641032199998e-16         977.97797797800001       0                         0                        -977.97797797800001        131                          7                          11                  -0.0038117416273799999  0.035886834688699999 -0.99497829790299996
                  0.096885359025199999              -2.74353101291e-16                -1.31641163559e-29                 87                                   41                                        42                                      83                                   3                                       141                                  0                                     0                                            0                                              0                                               1.27686795853e-17                     -2.87121780876e-16           975.97597597599997       0                         0                        -975.97597597599997        139                          7                          12                  -0.0038205363134399999  0.035955238835      -0.99495871869600006
                  0.097719235885300001              -2.7376413935799998e-16              -1.3410635388799999e-29               91                                   44                                        43                                      87                                   3                                       149                                  0                                     0                                            0                                              0                                               1.27630024488e-17                     -2.8652714180700001e-16         973.97397397400005       0                         0                        -973.97397397400005        147                          7                          13                  -0.0038293775067899999  0.036023897074700002 -0.99493902558400005
                  0.098578461746500007              -2.73175189117e-16                -1.3657154421600001e-29               95                                   47                                        44                                      91                                   3                                       157                                  0                                     0                                            0                                              0                                               1.27573039473e-17                     -2.8593249306500002e-16         971.97197197200001       0                         0                        -971.97197197200001        155                          7                          14                  -0.0038382655873300002  0.036092810771699999 -0.99491921768699998
                  0.099445544267999994              -2.7258625063499999e-16              -1.3952977261100001e-29               99                                   50                                        45                                      95                                   3                                       165                                  0                                     0                                            0                                              0                                               1.27515839618e-17                     -2.8533783459700002e-16         969.96996996999997       0                         0                        -969.96996996999997        163                          7                          15                  -0.0038472009502599999  0.036161981304899997 -0.99489929411699995
                  0.050578298757799997              -2.7199732398200002e-16              -4.43734259187e-31                 103                                  54                                        46                                      99                                   3                                       174                                  0                                     0                                            0                                              0                                               1.2745842375299999e-17                   -2.84743166357e-16           967.96796796800004       0                         0                        -967.96796796800004        172                          8                          16                  -0.00385617685355     0.036231428702400002 -0.99487925398699995
                  0.050928851918500002              -2.71408409226e-16                -4.43734259187e-31                 107                                  58                                        47                                      103                                  3                                       183                                  0                                     0                                            0                                              0                                               1.2740079061000001e-17                   -2.84148488287e-16           965.965965966            0                         0                        -965.965965966             181                          8                          17                  -0.0038652079513      0.036301117214100002 -0.99485909637100001
                  0.051601936291499999              -2.7081950643699999e-16              -4.43734259187e-31                 111                                  62                                        48                                      107                                  3                                       192                                  0                                     0                                            0                                              0                                               1.2734293899900001e-17                   -2.83553800337e-16           963.96396396399996       0                         0                        -963.96396396399996        190                          8                          18                  -0.0038742874874800001  0.036371066858500001 -0.99483882036600002
                  0.051963126573999999              -2.7023061568599999e-16              -4.9303806576300004e-31               115                                  66                                        49                                      111                                  3                                       201                                  0                                     0                                            0                                              0                                               1.2728486769600001e-17                   -2.8295910245599998e-16         961.96196196200003       0                         0                        -961.96196196200003        199                          8                          19                  -0.0038834159531100001  0.036441278845400001 -0.994818425048     
                  0.052632191359399998              -2.69641737044e-16                -4.9303806576300004e-31               119                                  70                                        50                                      115                                  3                                       210                                  0                                     0                                            0                                              0                                               1.27226575464e-17                     -2.8236439459000001e-16         959.95995995999999       0                         0                        -959.95995995999999        208                          8                          20                  -0.0038925936886099999  0.036511754791699998 -0.99479790948500002
                  0.052960796416200003              -2.6905287058200001e-16              -4.9303806576300004e-31               123                                  74                                        51                                      119                                  3                                       219                                  0                                     0                                            0                                              0                                               1.27168061057e-17                     -2.81769676687e-16           957.95795795799995       0                         0                        -957.95795795799995        217                          8                          21                  -0.0039018211889499999  0.036582495929099998 -0.99477727273600003
                  0.053423003507499997              -2.6846401637100002e-16              -4.9303806576300004e-31               127                                  78                                        52                                      123                                  3                                       228                                  0                                     0                                            0                                              0                                               1.2710932322299999e-17                   -2.8117494869399998e-16         955.95595595600003       0                         0                        -955.95595595600003        226                          8                          22                  -0.0039110988212000004  0.036653503853299997 -0.99475651385099995
                  0.053965342972700003              -2.6787517448599998e-16              -4.9303806576300004e-31               131                                  82                                        53                                      127                                  3                                       237                                  0                                     0                                            0                                              0                                               1.2705036069800001e-17                   -2.8058021055500001e-16         953.95395395399999       0                         0                        -953.95395395399999        235                          8                          23                  -0.0039204270198800002  0.036724779998400001 -0.994735631871     
                  0.0544983360991                  -2.6728634499800001e-16              -5.42341872339e-31                 135                                  86                                        54                                      131                                  3                                       246                                  0                                     0                                            0                                              0                                               1.2699117220799999e-17                   -2.7998546221900002e-16         951.95195195199994       0                         0                        -951.95195195199994        244                          8                          24                  -0.00392980622805     0.0367963258037     -0.99471462582500003
                  0.055043322526199999              -2.66697527982e-16                -4.9303806576300004e-31               139                                  90                                        55                                      135                                  3                                       255                                  0                                     0                                            0                                              0                                               1.2693175647099999e-17                   -2.7939070362899999e-16         949.94994995000002       0                         0                        -949.94994995000002        253                          8                          25                  -0.00393923688086     0.036868142750500002 -0.99469349473699997
                  0.055624730516800003              -2.6610872351099998e-16              -4.9303806576300004e-31               143                                  94                                        56                                      139                                  3                                       264                                  0                                     0                                            0                                              0                                               1.2687211219599999e-17                   -2.7879593473100002e-16         947.94794794799998       0                         0                        -947.94794794799998        262                          8                          26                  -0.0039487194181700002  0.036940232329600003 -0.99467223761699997
                  0.056070695183299997              -2.6551993166100002e-16              -5.42341872339e-31                 147                                  98                                        57                                      143                                  3                                       273                                  0                                     0                                            0                                              0                                               1.2681223808e-17                      -2.78201155469e-16           945.94594594600005       0                         0                        -945.94594594600005        271                          8                          27                  -0.0039582543074499999  0.037012595980900002 -0.99465085346799997
                  0.056661632246499997              -2.6493115250800002e-16              -5.42341872339e-31                 151                                  102                                       58                                      147                                  3                                       282                                  0                                     0                                            0                                              0                                               1.2675213281200001e-17                   -2.7760636578899999e-16         943.94394394400001       0                         0                        -943.94394394400001        280                          8                          28                  -0.00396784196922     0.037085235296000003 -0.99462934128199998
                  0.057034259029999999              -2.6434238612700001e-16              -5.42341872339e-31                 155                                  106                                       59                                      151                                  3                                       291                                  0                                     0                                            0                                              0                                               1.26691795071e-17                     -2.7701156563400002e-16         941.94194194199997       0                         0                        -941.94194194199997        289                          8                          29                  -0.0039774829027800001  0.037158151682599998 -0.99460770004200005
                  0.057723305583500001              -2.6375363259499999e-16              -5.42341872339e-31                 159                                  110                                       60                                      155                                  3                                       300                                  0                                     0                                            0                                              0                                               1.26631223525e-17                     -2.7641675494699999e-16         939.93993994000004       0                         0                        -939.93993994000004        298                          8                          30                  -0.0039871775104600004  0.0372313468286     -0.99458592871899998
                  0.058203432708100002              -2.6316489198899999e-16              -5.9164567891599996e-31               163                                  114                                       61                                      159                                  3                                       309                                  0                                     0                                            0                                              0                                               1.26570416832e-17                     -2.7582193367200001e-16         937.937937938            0                         0                        -937.937937938             307                          8                          31                  -0.00399692632047     0.037304822110499999 -0.99456402627700002
                  0.058691932322500001              -2.6257616438700002e-16              -6.4094948549200001e-31               167                                  118                                       62                                      163                                  3                                       318                                  0                                     0                                            0                                              0                                               1.2650937364200001e-17                   -2.7522710175199999e-16         935.93593593599996       0                         0                        -935.93593593599996        316                          8                          32                  -0.0040067297819500001  0.037378579141599998 -0.99454199166699997