# ODT 1.0
# Table Start
# Title: mmArchive Data Table, Thu Jan 04 13:38:05 EST 2024
# Columns: {Oxs_CGEvolve:evolver:Max mxHxm} {Oxs_CGEvolve:evolver:Total energy} {Oxs_CGEvolve:evolver:Delta E} {Oxs_CGEvolve:evolver:Bracket count} {Oxs_CGEvolve:evolver:Line min count} {Oxs_CGEvolve:evolver:Conjugate cycle count} {Oxs_CGEvolve:evolver:Cycle count} {Oxs_CGEvolve:evolver:Cycle sub count} {Oxs_CGEvolve:evolver:Energy calc count} Oxs_FixedZeeman:zeeman:Energy Oxs_MinDriver::Iteration {Oxs_MinDriver::Stage iteration} Oxs_MinDriver::Stage Oxs_MinDriver::mx    Oxs_MinDriver::my    Oxs_MinDriver::mz   
# Units:                 A/m                                 J                                J                                 {}                                   {}                                        {}                                      {}                                   {}                                      {}                                  J                          {}                           {}                         {}                 {}                   {}                   {}           
                  2.4458577638099999e-05              -1.00530964915e-19                -3.44642756136e-29                 9                                    3                                         5                                       5                                    0                                       13                                -1.00530964915e-19           10                           10                         0                   -2.4458577638099999e-11  0                    1                  
# Table End
