# ODT 1.0
# Table Start
# Title: mmArchive Data Table, Thu Jan 04 20:56:15 EST 2024
# Columns: {Oxs_CGEvolve:evolver:Max mxHxm} {Oxs_CGEvolve:evolver:Total energy} {Oxs_CGEvolve:evolver:Delta E} {Oxs_CGEvolve:evolver:Bracket count} {Oxs_CGEvolve:evolver:Line min count} {Oxs_CGEvolve:evolver:Conjugate cycle count} {Oxs_CGEvolve:evolver:Cycle count} {Oxs_CGEvolve:evolver:Cycle sub count} {Oxs_CGEvolve:evolver:Energy calc count} Oxs_UniformExchange:exchange:Energy {Oxs_UniformExchange:exchange:Max Spin Ang} {Oxs_UniformExchange:exchange:Stage Max Spin Ang} {Oxs_UniformExchange:exchange:Run Max Spin Ang} Oxs_DMI_T:dmi:Energy Oxs_FixedZeeman:zeeman:Energy Oxs_MinDriver::Iteration {Oxs_MinDriver::Stage iteration} Oxs_MinDriver::Stage Oxs_MinDriver::mx    Oxs_MinDriver::my    Oxs_MinDriver::mz   
# Units:                 A/m                                 J                                J                                 {}                                   {}                                        {}                                      {}                                   {}                                      {}                                     J                                      deg                                            deg                                              deg                                J                         J                          {}                           {}                         {}                 {}                   {}                   {}           
                  0.0914315821763                  -2.0021624121899999e-15              -7.8886090522099998e-31               71                                   16                                        51                                      66                                   15                                      88                                    3.2304914132099999e-18                     12.138873609799999                             179.93079581399999                               179.93079581399999                -2.3824194981499998e-17     -1.9815687086200001e-15         86                           86                         0                    7.0935867176499997e-09  3.53999150037e-10    0.99550648690999999
# Table End
