# ODT 1.0
# Table Start
# Title: mmArchive Data Table, Tue Jan 16 22:56:11 EST 2024
# Columns: {Oxs_CGEvolve:evolver:Max mxHxm} {Oxs_CGEvolve:evolver:Total energy} {Oxs_CGEvolve:evolver:Delta E} {Oxs_CGEvolve:evolver:Bracket count} {Oxs_CGEvolve:evolver:Line min count} {Oxs_CGEvolve:evolver:Conjugate cycle count} {Oxs_CGEvolve:evolver:Cycle count} {Oxs_CGEvolve:evolver:Cycle sub count} {Oxs_CGEvolve:evolver:Energy calc count} Oxs_Exchange6Ngbr:exchange:Energy {Oxs_Exchange6Ngbr:exchange:Max Spin Ang} {Oxs_Exchange6Ngbr:exchange:Stage Max Spin Ang} {Oxs_Exchange6Ngbr:exchange:Run Max Spin Ang} Oxs_UniaxialAnisotropy:uniaxialanisotropy:Energy Oxs_UZeeman:hysteresis:Energy Oxs_UZeeman:hysteresis:B Oxs_UZeeman:hysteresis:Bx Oxs_UZeeman:hysteresis:By Oxs_UZeeman:hysteresis:Bz Oxs_MinDriver::Iteration {Oxs_MinDriver::Stage iteration} Oxs_MinDriver::Stage Oxs_MinDriver::mx    Oxs_MinDriver::my    Oxs_MinDriver::mz   
# Units:                 A/m                                 J                                J                                 {}                                   {}                                        {}                                      {}                                   {}                                      {}                                    J                                    deg                                          deg                                            deg                                             J                                       J                          mT                       mT                        mT                        mT                        {}                           {}                         {}                 {}                   {}                   {}           
                  0.055879518348                   -7.7356264400199997e-17              -6.6560138878000004e-31               40                                   6                                         30                                      36                                   6                                       47                                   0                                     0                                            0                                              0                                               4.7500597520199999e-18                   -8.2106324152200006e-17         1000                     0                         0                        -1000                      45                           45                         0                   -0.00183933299511     0.00239605811651    -0.99682308848300005
                  0.047983503134400002              -7.7191888477900003e-17              -2.0954117794899999e-31               44                                   10                                        31                                      40                                   3                                       56                                   0                                     0                                            0                                              0                                               4.7489577306299998e-18                   -8.1940846208500002e-17         997.99799799799996       0                         0                        -997.99799799799996        54                           8                          1                   -0.00184290567986     0.0023970925677300001 -0.99680969582099999
                  0.048697434363600002              -7.7027514771099998e-17              -2.0954117794899999e-31               48                                   14                                        32                                      44                                   3                                       65                                   0                                     0                                            0                                              0                                               4.7478509235000003e-18                   -8.1775365694600005e-17         995.99599599600003       0                         0                        -995.99599599600003        63                           8                          2                   -0.0018464944893900001  0.0023981115980899999 -0.99679621798899998
                  0.049329181347399997              -7.6863143293899995e-17              -2.21867129593e-31                 52                                   18                                        33                                      48                                   3                                       74                                   0                                     0                                            0                                              0                                               4.7467392984e-18                      -8.1609882592299998e-17         993.99399399399999       0                         0                        -993.99399399399999        72                           8                          3                   -0.00185009553022     0.0023991172360299999 -0.99678265425099999
                  0.049831208559000001              -7.6698774060499996e-17              -2.0954117794899999e-31               56                                   22                                        34                                      52                                   3                                       83                                   0                                     0                                            0                                              0                                               4.7456228236000003e-18                   -8.1444396884099999e-17         991.99199199199995       0                         0                        -991.99199199199995        81                           8                          4                   -0.00185370884873     0.0024001092806499999 -0.99676900387300005
                  0.0503650762034                  -7.6534407085300004e-17              -2.21867129593e-31                 60                                   26                                        35                                      56                                   3                                       92                                   0                                     0                                            0                                              0                                               4.7445014671099997e-18                   -8.1278908552400005e-17         989.98998999000003       0                         0                        -989.98998999000003        90                           8                          5                   -0.0018573345221599999  0.0024010875044199998 -0.99675526611300003
                  0.050970641147399999              -7.6370042382599996e-17              -2.3419308123700001e-31               64                                   30                                        36                                      60                                   3                                       101                                  0                                     0                                            0                                              0                                               4.7433751967000004e-18                   -8.1113417579299998e-17         987.98798798799999       0                         0                        -987.98798798799999        99                           8                          6                   -0.0018609726094099999  0.0024020516974399999 -0.99674144022      
                  0.0516075684996                  -7.62056799672e-17                -2.21867129593e-31                 68                                   34                                        37                                      64                                   3                                       110                                  0                                     0                                            0                                              0                                               4.7422439798000003e-18                   -8.0947923946999996e-17         985.98598598599995       0                         0                        -985.98598598599995        108                          8                          7                   -0.00186462316225     0.0024030016515699999 -0.99672752543800003
                  0.052142279269699998              -7.6041319853799997e-17              -2.4651903288199998e-31               72                                   38                                        38                                      68                                   3                                       119                                  0                                     0                                            0                                              0                                               4.7411077835899999e-18                   -8.0782427637400006e-17         983.98398398400002       0                         0                        -983.98398398400002        117                          8                          8                   -0.0018682862205      0.0024039371675599998 -0.99671352100099997
                  0.052680133364000001              -7.5876962057100003e-17              -2.4651903288199998e-31               76                                   42                                        39                                      72                                   3                                       128                                  0                                     0                                            0                                              0                                               4.7399665749500001e-18                   -8.0616928631999994e-17         981.98198198199998       0                         0                        -981.98198198199998        126                          8                          9                   -0.00187196185245     0.0024048580186500001 -0.996699426133     
                  0.0534304968464                  -7.5712606592199997e-17              -2.4651903288199998e-31               80                                   46                                        40                                      76                                   3                                       137                                  0                                     0                                            0                                              0                                               4.7388203204600002e-18                   -8.0451426912600003e-17         979.97997998000005       0                         0                        -979.97997998000005        135                          8                          10                  -0.00187565014384     0.0024057639560799999 -0.99668524005199999
                  0.053803674088599998              -7.5548253474099999e-17              -2.4651903288199998e-31               84                                   50                                        41                                      80                                   3                                       146                                  0                                     0                                            0                                              0                                               4.7376689863900004e-18                   -8.0285922460499998e-17         977.97797797800001       0                         0                        -977.97797797800001        144                          8                          11                  -0.00187935107417     0.002406654831      -0.99667096196799998
                  0.054329863801299998              -7.5383902718200003e-17              -2.5884498452599999e-31               88                                   54                                        42                                      84                                   3                                       155                                  0                                     0                                            0                                              0                                               4.73651253873e-18                     -8.0120415256999994e-17         975.97597597599997       0                         0                        -975.97597597599997        153                          8                          12                  -0.0018830647697300001  0.0024075303522399999 -0.99665659108000004
                  0.0550828733941                  -7.5219554339800002e-17              -2.5884498452599999e-31               92                                   58                                        43                                      88                                   3                                       164                                  0                                     0                                            0                                              0                                               4.7353509431400002e-18                   -7.9954905282900005e-17         973.97397397400005       0                         0                        -973.97397397400005        162                          8                          13                  -0.0018867913005499999  0.0024083902770299999 -0.99664212657899998
                  0.055768859247299997              -7.5055208354300005e-17              -2.7117093617e-31                  96                                   62                                        44                                      92                                   3                                       173                                  0                                     0                                            0                                              0                                               4.7341841650000004e-18                   -7.9789392519299997e-17         971.97197197200001       0                         0                        -971.97197197200001        171                          8                          14                  -0.00189053068339     0.0024092344144799999 -0.99662756764799998
                  0.056380699307299997              -7.4890864777499994e-17              -2.5884498452599999e-31               100                                  66                                        45                                      96                                   3                                       182                                  0                                     0                                            0                                              0                                               4.7330121693400001e-18                   -7.9623876946800004e-17         969.96996996999997       0                         0                        -969.96996996999997        180                          8                          15                  -0.0018942829773300001  0.0024100625268     -0.99661291346199998
                  0.056867729621999999              -7.4726523625000003e-17              -2.7117093617e-31                  104                                  70                                        46                                      100                                  3                                       191                                  0                                     0                                            0                                              0                                               4.7318349209200003e-18                   -7.9458358546000003e-17         967.96796796800004       0                         0                        -967.96796796800004        189                          8                          16                  -0.0018980482329099999  0.0024108743840099999 -0.99659816318299999
                  0.057456897751500001              -7.4562184912900005e-17              -2.8349688781400001e-31               108                                  74                                        47                                      104                                  3                                       200                                  0                                     0                                            0                                              0                                               4.7306523841499997e-18                   -7.9292837297100005e-17         965.965965966            0                         0                        -965.965965966             198                          8                          17                  -0.0019018265406900001  0.00241166971296    -0.99658331596899996
                  0.058172842566500002              -7.4397848657199997e-17              -2.8349688781400001e-31               112                                  78                                        48                                      108                                  3                                       209                                  0                                     0                                            0                                              0                                               4.7294645231099997e-18                   -7.9127313180299994e-17         963.96396396399996       0                         0                        -963.96396396399996        207                          8                          18                  -0.00190561796337     0.0024124482651199999 -0.99656837096399997
                  0.058816173420900002              -7.4233514874000001e-17              -2.8349688781400001e-31               116                                  82                                        49                                      112                                  3                                       218                                  0                                     0                                            0                                              0                                               4.7282713015700001e-18                   -7.8961786175500005e-17         961.96196196200003       0                         0                        -961.96196196200003        216                          8                          19                  -0.00190942253326     0.0024132098180399998 -0.99655332730500001
                  0.0593572198046                  -7.4069183579700005e-17              -2.9582283945799998e-31               120                                  86                                        50                                      116                                  3                                       227                                  0                                     0                                            0                                              0                                               4.7270726829700004e-18                   -7.8796256262699997e-17         959.95995995999999       0                         0                        -959.95995995999999        225                          8                          20                  -0.00191324030688     0.0024139541221400002 -0.99653818411899997
                  0.060101387767199997              -7.3904854790799996e-17              -2.9582283945799998e-31               124                                  90                                        51                                      120                                  3                                       236                                  0                                     0                                            0                                              0                                               4.7258686303999999e-18                   -7.8630723421200002e-17         957.95795795799995       0                         0                        -957.95795795799995        234                          8                          21                  -0.0019170713858200001  0.0024146808825999998 -0.99652294052400003
                  0.060688125697600001              -7.3740528523899998e-17              -3.0814879110199999e-31               128                                  94                                        52                                      124                                  3                                       245                                  0                                     0                                            0                                              0                                               4.7246591066300003e-18                   -7.8465187630600003e-17         955.95595595600003       0                         0                        -955.95595595600003        243                          8                          22                  -0.00192091578166     0.00241538988667    -0.99650759562699998
                  0.061491436570099998              -7.35762047959e-17                -3.2047474274600001e-31               132                                  98                                        53                                      128                                  3                                       254                                  0                                     0                                            0                                              0                                               4.7234440740800001e-18                   -7.8299648870000004e-17         953.95395395399999       0                         0                        -953.95395395399999        252                          8                          23                  -0.00192477360772     0.00241608082067    -0.99649214852500001
                  0.0622714304912                  -7.3411883623500003e-17              -3.2047474274600001e-31               136                                  102                                       54                                      132                                  3                                       263                                  0                                     0                                            0                                              0                                               4.7222234948099996e-18                   -7.81341071184e-17           951.95195195199994       0                         0                        -951.95195195199994        261                          8                          24                  -0.00192864489104     0.0024167534518499999 -0.99647659830599999
                  0.062894774819099997              -7.3247565023999998e-17              -3.3280069439000002e-31               140                                  106                                       55                                      136                                  3                                       272                                  0                                     0                                            0                                              0                                               4.7209973305600002e-18                   -7.7968562354600006e-17         949.94994995000002       0                         0                        -949.94994995000002        270                          8                          25                  -0.0019325296752400001  0.00241740752653    -0.99646094404700003
                  0.063642261463899993              -7.3083249014499999e-17              -3.3280069439000002e-31               144                                  110                                       56                                      140                                  3                                       281                                  0                                     0                                            0                                              0                                               4.7197655426899998e-18                   -7.78030145572e-17           947.94794794799998       0                         0                        -947.94794794799998        279                          8                          26                  -0.00193642806279     0.00241804273073    -0.99644518481400002
                  0.064517880254100005              -7.2918935612499998e-17              -3.3280069439000002e-31               148                                  114                                       57                                      144                                  3                                       290                                  0                                     0                                            0                                              0                                               4.7185280922099999e-18                   -7.7637463704699999e-17         945.94594594600005       0                         0                        -945.94594594600005        288                          8                          27                  -0.00194034011479     0.0024186587894600002 -0.99642931966399995
                  0.065081118661699994              -7.2754624835399998e-17              -3.4512664603399999e-31               152                                  118                                       58                                      148                                  3                                       299                                  0                                     0                                            0                                              0                                               4.7172849397599997e-18                   -7.7471909775200002e-17         943.94394394400001       0                         0                        -943.94394394400001        297                          8                          28                  -0.0019442658336500001  0.00241925547694    -0.99641334764300005
                  0.065765704804299996              -7.2590316701000005e-17              -3.57452597678e-31                 156                                  122                                       59                                      152                                  3                                       308                                  0                                     0                                            0                                              0                                               4.7160360456400002e-18                   -7.7306352746699999e-17         941.94194194199997       0                         0                        -941.94194194199997        306                          8                          29                  -0.0019482053428799999  0.0024198324500500001 -0.99639726778500004
                  0.066691116087399999              -7.2426011227200001e-17              -3.57452597678e-31                 160                                  126                                       60                                      156                                  3                                       317                                  0                                     0                                            0                                              0                                               4.7147813697300003e-18                   -7.71407925969e-17           939.93993994000004       0                         0                        -939.93993994000004        315                          8                          30                  -0.0019521587227500001  0.00242038940323    -0.99638107911499996
                  0.067457612953500001              -7.2261708431900002e-17              -3.57452597678e-31                 164                                  130                                       61                                      160                                  3                                       326                                  0                                     0                                            0                                              0                                               4.7135208715900001e-18                   -7.6975229303500006e-17         937.937937938            0                         0                        -937.937937938             324                          8                          31                  -0.00195612598074     0.0024209260959200001 -0.99636478064400003
                  0.068209634860800006              -7.2097408333400006e-17              -3.6977854932200001e-31               168                                  134                                       62                                      164                                  3                                       335                                  0                                     0                                            0                                              0                                               4.7122545103599999e-18                   -7.68096628437e-17           935.93593593599996       0                         0                        -935.93593593599996        333                          8                          32                  -0.00196010720219     0.0024214422091399998 -0.99634837137400001