# ODT 1.0
# Table Start
# Title: mmArchive Data Table, Mon Jan 08 02:19:17 EST 2024
# Columns: {Oxs_CGEvolve:evolver:Max mxHxm} {Oxs_CGEvolve:evolver:Total energy} {Oxs_CGEvolve:evolver:Delta E} {Oxs_CGEvolve:evolver:Bracket count} {Oxs_CGEvolve:evolver:Line min count} {Oxs_CGEvolve:evolver:Conjugate cycle count} {Oxs_CGEvolve:evolver:Cycle count} {Oxs_CGEvolve:evolver:Cycle sub count} {Oxs_CGEvolve:evolver:Energy calc count} Oxs_Demag:demag:Energy Oxs_ExchangePtwise:exchange:Energy {Oxs_ExchangePtwise:exchange:Max Spin Ang} {Oxs_ExchangePtwise:exchange:Stage Max Spin Ang} {Oxs_ExchangePtwise:exchange:Run Max Spin Ang} Oxs_UniaxialAnisotropy:uniaxialanisotropy:Energy Oxs_FixedZeeman:zeeman:Energy Oxs_MinDriver::Iteration {Oxs_MinDriver::Stage iteration} Oxs_MinDriver::Stage Oxs_MinDriver::mx    Oxs_MinDriver::my    Oxs_MinDriver::mz   
# Units:                 A/m                                 J                                J                                 {}                                   {}                                        {}                                      {}                                   {}                                      {}                              J                            J                                     deg                                           deg                                             deg                                              J                                       J                          {}                           {}                         {}                 {}                   {}                   {}           
                  0.098623894009299995               8.7530377905000005e-20              -1.2037062152400001e-35               927                                  523                                       104                                     855                                  405                                     1451                            1.09982594838e-19            4.1042138960800001e-23                    0.14908388962800001                           179.25227409300001                              179.25227409300001                              2.0001140821899998e-20                   -4.2494399893600001e-20         1375                         1375                       0                   -0.046685816184299997 -0.15742084204699999  0.31903192409100001
# Table End
