# ODT 1.0
# Table Start
# Title: mmArchive Data Table, Mon Jan 08 13:12:07 EST 2024
# Columns: {Oxs_CGEvolve:evolver:Max mxHxm} {Oxs_CGEvolve:evolver:Total energy} {Oxs_CGEvolve:evolver:Delta E} {Oxs_CGEvolve:evolver:Bracket count} {Oxs_CGEvolve:evolver:Line min count} {Oxs_CGEvolve:evolver:Conjugate cycle count} {Oxs_CGEvolve:evolver:Cycle count} {Oxs_CGEvolve:evolver:Cycle sub count} {Oxs_CGEvolve:evolver:Energy calc count} Oxs_Demag:demag:Energy Oxs_ExchangePtwise:exchange:Energy {Oxs_ExchangePtwise:exchange:Max Spin Ang} {Oxs_ExchangePtwise:exchange:Stage Max Spin Ang} {Oxs_ExchangePtwise:exchange:Run Max Spin Ang} Oxs_UniaxialAnisotropy:uniaxialanisotropy:Energy Oxs_FixedZeeman:zeeman:Energy Oxs_MinDriver::Iteration {Oxs_MinDriver::Stage iteration} Oxs_MinDriver::Stage Oxs_MinDriver::mx    Oxs_MinDriver::my    Oxs_MinDriver::mz   
# Units:                 A/m                                 J                                J                                 {}                                   {}                                        {}                                      {}                                   {}                                      {}                              J                            J                                     deg                                           deg                                             deg                                              J                                       J                          {}                           {}                         {}                 {}                   {}                   {}           
                  0.087386769664799996               7.5852933995599998e-20               0                                 676                                  372                                       116                                     606                                  212                                     1049                            9.7969916302800001e-20          3.87522692572e-23                      0.155177409333                                179.80413972400001                              179.80413972400001                              1.7850615795500001e-20                   -4.0006350371899999e-20         978                          978                        0                   -0.0059194886707500003  0.0600041944496      0.30035258685799998
# Table End
