# ODT 1.0
# Table Start
# Title: mmArchive Data Table, Sun Jan 14 22:55:15 EST 2024
# Columns: {Oxs_CGEvolve:evolver:Max mxHxm} {Oxs_CGEvolve:evolver:Total energy} {Oxs_CGEvolve:evolver:Delta E} {Oxs_CGEvolve:evolver:Bracket count} {Oxs_CGEvolve:evolver:Line min count} {Oxs_CGEvolve:evolver:Conjugate cycle count} {Oxs_CGEvolve:evolver:Cycle count} {Oxs_CGEvolve:evolver:Cycle sub count} {Oxs_CGEvolve:evolver:Energy calc count} Oxs_Demag:demag:Energy Oxs_ExchangePtwise:exchange:Energy {Oxs_ExchangePtwise:exchange:Max Spin Ang} {Oxs_ExchangePtwise:exchange:Stage Max Spin Ang} {Oxs_ExchangePtwise:exchange:Run Max Spin Ang} Oxs_UniaxialAnisotropy:uniaxialanisotropy:Energy Oxs_FixedZeeman:zeeman:Energy Oxs_MinDriver::Iteration {Oxs_MinDriver::Stage iteration} Oxs_MinDriver::Stage Oxs_MinDriver::mx    Oxs_MinDriver::my    Oxs_MinDriver::mz   
# Units:                 A/m                                 J                                J                                 {}                                   {}                                        {}                                      {}                                   {}                                      {}                              J                            J                                     deg                                           deg                                             deg                                              J                                       J                          {}                           {}                         {}                 {}                   {}                   {}           
                  0.086331777557600006               7.0967000718499994e-20               0                                 658                                  434                                       91                                      623                                  493                                     1093                            9.3690849955599995e-20          3.43123288472e-23                      0.19551415537399999                           179.793845627                                   179.793845627                                   1.65373526619e-20                     -3.9295514227899998e-20         1064                         1064                       0                    0.27186872161499998  0.16327610680900001  0.29501589723999999
# Table End
