# ODT 1.0
# Table Start
# Title: mmArchive Data Table, Tue Jan 09 10:03:30 EST 2024
# Columns: {Oxs_CGEvolve:evolver:Max mxHxm} {Oxs_CGEvolve:evolver:Total energy} {Oxs_CGEvolve:evolver:Delta E} {Oxs_CGEvolve:evolver:Bracket count} {Oxs_CGEvolve:evolver:Line min count} {Oxs_CGEvolve:evolver:Conjugate cycle count} {Oxs_CGEvolve:evolver:Cycle count} {Oxs_CGEvolve:evolver:Cycle sub count} {Oxs_CGEvolve:evolver:Energy calc count} Oxs_UniformExchange:exchange:Energy {Oxs_UniformExchange:exchange:Max Spin Ang} {Oxs_UniformExchange:exchange:Stage Max Spin Ang} {Oxs_UniformExchange:exchange:Run Max Spin Ang} Oxs_DMI_T:dmi:Energy Oxs_FixedZeeman:zeeman:Energy Oxs_MinDriver::Iteration {Oxs_MinDriver::Stage iteration} Oxs_MinDriver::Stage Oxs_MinDriver::mx    Oxs_MinDriver::my    Oxs_MinDriver::mz   
# Units:                 A/m                                 J                                J                                 {}                                   {}                                        {}                                      {}                                   {}                                      {}                                     J                                      deg                                            deg                                              deg                                J                         J                          {}                           {}                         {}                 {}                   {}                   {}           
                  0.0984466074616                  -6.1949836255999998e-16               0                                 53671                                25587                                     362                                     52579                                160                                     79259                                 4.3554248123600001e-16                     42.818150425699997                             179.80211474000001                               179.80211474000001                -7.6209127125199995e-16     -2.9294957254500001e-16         78355                        78355                      0                    3.6663669570700001e-10  2.4159728016899998e-09  0.51740470245000003
# Table End
