# ODT 1.0
# Table Start
# Title: mmArchive Data Table, Thu Jan 04 12:35:13 EST 2024
# Columns: {Oxs_CGEvolve:evolver:Max mxHxm} {Oxs_CGEvolve:evolver:Total energy} {Oxs_CGEvolve:evolver:Delta E} {Oxs_CGEvolve:evolver:Bracket count} {Oxs_CGEvolve:evolver:Line min count} {Oxs_CGEvolve:evolver:Conjugate cycle count} {Oxs_CGEvolve:evolver:Cycle count} {Oxs_CGEvolve:evolver:Cycle sub count} {Oxs_CGEvolve:evolver:Energy calc count} Oxs_UniformExchange:exchange:Energy {Oxs_UniformExchange:exchange:Max Spin Ang} {Oxs_UniformExchange:exchange:Stage Max Spin Ang} {Oxs_UniformExchange:exchange:Run Max Spin Ang} Oxs_Demag:demag:Energy Oxs_FixedZeeman:zeeman:Energy Oxs_MinDriver::Iteration {Oxs_MinDriver::Stage iteration} Oxs_MinDriver::Stage Oxs_MinDriver::mx    Oxs_MinDriver::my    Oxs_MinDriver::mz   
# Units:                 A/m                                 J                                J                                 {}                                   {}                                        {}                                      {}                                   {}                                      {}                                     J                                      deg                                            deg                                              deg                                 J                          J                          {}                           {}                         {}                 {}                   {}                   {}           
                  0.099352482015499996              -4.7249649985599999e-15              -7.8886090522099998e-31               44                                   19                                        17                                      37                                   20                                      64                                    8.03744110097e-20                       15.285642467100001                             15.608227082000001                               15.608227082000001                  1.44830846956e-15        -6.1733538425199997e-15         61                           61                         0                    0.98251977949299996 -9.1997613773899995e-10  5.9371814131700001e-18
# Table End
