# ODT 1.0
# Table Start
# Title: mmArchive Data Table, Tue Jan 16 23:49:28 EST 2024
# Columns: {Oxs_CGEvolve:evolver:Max mxHxm} {Oxs_CGEvolve:evolver:Total energy} {Oxs_CGEvolve:evolver:Delta E} {Oxs_CGEvolve:evolver:Bracket count} {Oxs_CGEvolve:evolver:Line min count} {Oxs_CGEvolve:evolver:Conjugate cycle count} {Oxs_CGEvolve:evolver:Cycle count} {Oxs_CGEvolve:evolver:Cycle sub count} {Oxs_CGEvolve:evolver:Energy calc count} Oxs_Exchange6Ngbr:exchange:Energy {Oxs_Exchange6Ngbr:exchange:Max Spin Ang} {Oxs_Exchange6Ngbr:exchange:Stage Max Spin Ang} {Oxs_Exchange6Ngbr:exchange:Run Max Spin Ang} Oxs_UniaxialAnisotropy:uniaxialanisotropy:Energy Oxs_MinDriver::Iteration {Oxs_MinDriver::Stage iteration} Oxs_MinDriver::Stage Oxs_MinDriver::mx    Oxs_MinDriver::my    Oxs_MinDriver::mz   
# Units:                 A/m                                 J                                J                                 {}                                   {}                                        {}                                      {}                                   {}                                      {}                                    J                                    deg                                          deg                                            deg                                             J                                    {}                           {}                         {}                 {}                   {}                   {}           
                  0.034940938393100002               2.6625182911399999e-31              -3.9933779792200003e-30               14                                   4                                         9                                       11                                   2                                       19                                   0                                     0                                            0                                              0                                               2.6625182911399999e-31                  16                           16                         0                    0.025419904550999999  0.224946281917       0.60023130424500004
# Table End
